[Molden Format]
[Title]
Written by TeraChem
[Atoms] Angs
C   1   6      1.96343    1.70371   -2.84422
H   2   1      1.86447    2.64470   -2.22090
O   3   8      1.78429    1.85368   -4.07891
O   4   8      2.23720    0.65871   -2.20256
[GTO]
    1 0
 s    6 1.00
         3047.524900             0.001835
          457.369510             0.014037
          103.948690             0.068843
           29.210155             0.232184
            9.286663             0.467941
            3.163927             0.362312
 s    3 1.00
            7.868272            -0.119332
            1.881288            -0.160854
            0.544249             1.143456
 s    1 1.00
            0.168714             1.000000
 p    3 1.00
            7.868272             0.068999
            1.881288             0.316424
            0.544249             0.744308
 p    1 1.00
            0.168714             1.000000
 d    1 1.00
            0.800000             1.000000

    2 0
 s    3 1.00
           18.731137             0.033495
            2.825394             0.234727
            0.640122             0.813757
 s    1 1.00
            0.161278             1.000000

    3 0
 s    6 1.00
         5484.671700             0.001831
          825.234950             0.013950
          188.046960             0.068445
           52.964500             0.232714
           16.897570             0.470193
            5.799635             0.358521
 s    3 1.00
           15.539616            -0.110778
            3.599934            -0.148026
            1.013762             1.130767
 s    1 1.00
            0.270006             1.000000
 p    3 1.00
           15.539616             0.070874
            3.599934             0.339753
            1.013762             0.727159
 p    1 1.00
            0.270006             1.000000
 d    1 1.00
            0.800000             1.000000

    4 0
 s    6 1.00
         5484.671700             0.001831
          825.234950             0.013950
          188.046960             0.068445
           52.964500             0.232714
           16.897570             0.470193
            5.799635             0.358521
 s    3 1.00
           15.539616            -0.110778
            3.599934            -0.148026
            1.013762             1.130767
 s    1 1.00
            0.270006             1.000000
 p    3 1.00
           15.539616             0.070874
            3.599934             0.339753
            1.013762             0.727159
 p    1 1.00
            0.270006             1.000000
 d    1 1.00
            0.800000             1.000000

[MO]
 Ene=   -19.0513
 Spin= Alpha
 Occup= 1.0
    1    0.00001
    2    0.00052
    3   -0.00255
    4    0.00004
    5   -0.00014
    6    0.00012
    7   -0.00050
    8    0.00200
    9   -0.00102
   10   -0.00002
   11   -0.00040
   12   -0.00017
   13    0.00012
   14   -0.00007
   15    0.00026
   16    0.00003
   17   -0.00028
   18   -0.09779
   19   -0.00253
   20   -0.00110
   21   -0.00002
   22    0.00008
   23   -0.00005
   24    0.00006
   25   -0.00034
   26    0.00000
   27    0.00078
   28    0.00073
   29    0.00082
   30    0.00002
   31   -0.00001
   32    0.00007
   33    0.98797
   34    0.02572
   35    0.01235
   36   -0.00020
   37    0.00074
   38   -0.00047
   39   -0.00027
   40    0.00101
   41   -0.00066
   42   -0.00791
   43   -0.00769
   44   -0.00781
   45   -0.00007
   46    0.00005
   47   -0.00017
 Ene=   -19.0512
 Spin= Alpha
 Occup= 1.0
    1   -0.00002
    2   -0.00063
    3    0.00310
    4    0.00002
    5   -0.00002
    6    0.00016
    7   -0.00020
    8   -0.00029
    9   -0.00212
   10    0.00002
   11    0.00012
   12    0.00060
   13   -0.00004
   14    0.00011
   15   -0.00013
   16   -0.00003
   17    0.00034
   18   -0.98797
   19   -0.02573
   20   -0.01237
   21   -0.00013
   22    0.00011
   23   -0.00089
   24   -0.00020
   25    0.00025
   26   -0.00123
   27    0.00792
   28    0.00791
   29    0.00758
   30    0.00001
   31   -0.00006
   32    0.00005
   33   -0.09779
   34   -0.00256
   35   -0.00135
   36    0.00003
   37   -0.00014
   38    0.00000
   39    0.00007
   40   -0.00006
   41    0.00045
   42    0.00078
   43    0.00067
   44    0.00085
   45    0.00003
   46    0.00000
   47    0.00003
 Ene=   -10.2335
 Spin= Alpha
 Occup= 1.0
    1   -0.99287
    2   -0.04780
    3    0.00496
    4   -0.00005
    5    0.00046
    6    0.00031
    7   -0.00022
    8    0.00210
    9    0.00139
   10    0.00967
   11    0.00885
   12    0.00838
   13    0.00026
   14   -0.00029
   15    0.00055
   16    0.00035
   17   -0.00262
   18    0.00011
   19   -0.00026
   20    0.00177
   21    0.00000
   22    0.00006
   23    0.00010
   24    0.00032
   25   -0.00065
   26    0.00164
   27   -0.00027
   28   -0.00019
   29    0.00047
   30   -0.00003
   31    0.00013
   32   -0.00010
   33    0.00011
   34   -0.00026
   35    0.00177
   36   -0.00002
   37    0.00011
   38    0.00001
   39   -0.00038
   40    0.00121
   41   -0.00127
   42   -0.00025
   43    0.00027
   44   -0.00002
   45   -0.00016
   46    0.00010
   47   -0.00034
 Ene=    -0.9788
 Spin= Alpha
 Occup= 1.0
    1    0.13870
    2   -0.26823
    3   -0.09012
    4   -0.00803
    5    0.07567
    6    0.04990
    7    0.00236
    8   -0.02237
    9   -0.01483
   10    0.02218
   11    0.00445
   12   -0.00824
   13    0.00606
   14   -0.00739
   15    0.01521
   16   -0.03566
   17    0.01256
   18    0.13247
   19   -0.28560
   20   -0.27342
   21   -0.01692
   22    0.01967
   23   -0.10823
   24   -0.00705
   25    0.01249
   26   -0.03855
   27    0.00455
   28    0.00673
   29   -0.00902
   30    0.00012
   31   -0.00276
   32    0.00429
   33    0.13266
   34   -0.28600
   35   -0.27379
   36    0.02428
   37   -0.08908
   38    0.06240
   39    0.00885
   40   -0.02948
   41    0.02733
   42    0.00415
   43   -0.00327
   44    0.00138
   45    0.00292
   46   -0.00227
   47    0.00953
 Ene=    -0.8955
 Spin= Alpha
 Occup= 1.0
    1    0.00008
    2   -0.00015
    3   -0.00006
    4    0.05397
    5   -0.14238
    6    0.22364
    7    0.00190
    8   -0.00503
    9    0.00787
   10    0.00096
   11    0.02363
   12   -0.02459
   13   -0.00661
   14   -0.00116
   15   -0.01238
   16   -0.00002
   17    0.00001
   18    0.15182
   19   -0.33004
   20   -0.32092
   21   -0.01169
   22    0.00004
   23   -0.09544
   24   -0.00200
   25   -0.00365
   26   -0.02194
   27    0.00449
   28    0.00669
   29   -0.00216
   30   -0.00064
   31   -0.00069
   32   -0.00131
   33   -0.15165
   34    0.32967
   35    0.32053
   36   -0.02070
   37    0.08539
   38   -0.03877
   39   -0.00461
   40    0.02109
   41   -0.00548
   42   -0.00417
   43    0.00131
   44   -0.00616
   45   -0.00160
   46    0.00029
   47   -0.00287
 Ene=    -0.5050
 Spin= Alpha
 Occup= 1.0
    1    0.13111
    2   -0.28442
    3   -0.23806
    4    0.02321
    5   -0.22055
    6   -0.14610
    7    0.00938
    8   -0.08925
    9   -0.05914
   10    0.00988
   11    0.00038
   12    0.01159
   13    0.00017
   14    0.00303
   15   -0.01474
   16   -0.23293
   17   -0.13750
   18   -0.07136
   19    0.15343
   20    0.24019
   21   -0.00374
   22   -0.07284
   23   -0.14134
   24   -0.00420
   25   -0.03299
   26   -0.08446
   27   -0.00147
   28   -0.00078
   29   -0.01874
   30   -0.00083
   31   -0.00140
   32   -0.00561
   33   -0.07138
   34    0.15347
   35    0.24032
   36    0.02790
   37   -0.15635
   38   -0.01040
   39    0.01708
   40   -0.08913
   41    0.00360
   42   -0.00219
   43   -0.01877
   44   -0.00005
   45    0.00420
   46   -0.00051
   47    0.00382
 Ene=    -0.3982
 Spin= Alpha
 Occup= 1.0
    1   -0.06179
    2    0.15297
    3    0.08785
    4    0.02833
    5   -0.26932
    6   -0.17828
    7    0.00605
    8   -0.05795
    9   -0.03839
   10   -0.00774
   11   -0.00989
   12   -0.01050
   13    0.00057
   14   -0.00053
   15    0.00065
   16   -0.11473
   17   -0.14081
   18    0.06161
   19   -0.11999
   20   -0.26469
   21    0.06787
   22   -0.20079
   23    0.24886
   24    0.04184
   25   -0.12932
   26    0.14500
   27    0.00437
   28    0.00651
   29    0.02139
   30   -0.00245
   31    0.00526
   32   -0.01459
   33    0.06164
   34   -0.12006
   35   -0.26480
   36   -0.06183
   37    0.14143
   38   -0.28841
   39   -0.03650
   40    0.07740
   41   -0.17954
   42    0.00448
   43    0.00915
   44    0.01865
   45   -0.00320
   46    0.00514
   47   -0.01598
 Ene=    -0.3640
 Spin= Alpha
 Occup= 1.0
    1    0.00004
    2   -0.00008
    3   -0.00011
    4    0.07235
    5   -0.19102
    6    0.29998
    7    0.01426
    8   -0.03770
    9    0.05922
   10    0.00023
   11    0.00570
   12   -0.00593
   13   -0.00160
   14   -0.00028
   15   -0.00300
   16   -0.00001
   17   -0.00001
   18   -0.06178
   19    0.11176
   20    0.30613
   21   -0.03866
   22   -0.03804
   23   -0.37347
   24   -0.02063
   25   -0.02846
   26   -0.21172
   27   -0.00579
   28   -0.00630
   29   -0.02725
   30   -0.00016
   31   -0.00257
   32   -0.00269
   33    0.06173
   34   -0.11167
   35   -0.30593
   36   -0.07966
   37    0.35001
   38   -0.11622
   39   -0.04490
   40    0.20123
   41   -0.05945
   42    0.00652
   43    0.02478
   44    0.00802
   45   -0.00501
   46    0.00166
   47   -0.00699
 Ene=    -0.3491
 Spin= Alpha
 Occup= 1.0
    1    0.00001
    2   -0.00002
    3   -0.00004
    4    0.36081
    5    0.06723
    6   -0.04422
    7    0.21798
    8    0.04067
    9   -0.02674
   10    0.00183
   11   -0.00322
   12    0.00139
   13   -0.00978
   14   -0.00672
   15   -0.00001
   16   -0.00002
   17   -0.00003
   18    0.00000
   19    0.00001
   20   -0.00004
   21    0.32064
   22    0.05976
   23   -0.03926
   24    0.20192
   25    0.03763
   26   -0.02474
   27    0.00521
   28   -0.00090
   29   -0.00429
   30   -0.00225
   31    0.01989
   32    0.00412
   33    0.00002
   34   -0.00003
   35   -0.00007
   36    0.32084
   37    0.05997
   38   -0.03944
   39    0.20208
   40    0.03777
   41   -0.02484
   42   -0.00781
   43    0.00551
   44    0.00231
   45    0.01618
   46   -0.01031
   47   -0.00412
 Ene=    -0.2137
 Spin= Alpha
 Occup= 1.0
    1   -0.00000
    2   -0.00000
    3    0.00004
    4   -0.00009
    5    0.00001
    6    0.00001
    7   -0.00007
    8   -0.00006
    9    0.00005
   10    0.01444
   11   -0.00712
   12   -0.00732
   13   -0.02044
   14    0.03352
   15    0.00915
   16    0.00003
   17    0.00003
   18    0.00000
   19   -0.00001
   20    0.00002
   21   -0.44092
   22   -0.08252
   23    0.05397
   24   -0.35453
   25   -0.06635
   26    0.04340
   27   -0.00395
   28    0.00019
   29    0.00376
   30    0.00016
   31   -0.01749
   32   -0.00339
   33    0.00000
   34   -0.00001
   35   -0.00006
   36    0.44076
   37    0.08234
   38   -0.05387
   39    0.35444
   40    0.06620
   41   -0.04332
   42   -0.00671
   43    0.00507
   44    0.00164
   45    0.01495
   46   -0.00729
   47   -0.00337
 Ene=    -0.2013
 Spin= Alpha
 Occup= 1.0
    1   -0.00001
    2   -0.00003
    3    0.00054
    4    0.00709
    5   -0.01838
    6    0.02999
    7   -0.04073
    8    0.10711
    9   -0.16927
   10    0.00110
   11    0.02726
   12   -0.02829
   13   -0.00760
   14   -0.00137
   15   -0.01402
   16    0.00097
   17    0.00181
   18    0.00671
   19   -0.00229
   20   -0.13249
   21   -0.09056
   22    0.44980
   23   -0.05237
   24   -0.07205
   25    0.33620
   26   -0.07476
   27    0.00446
   28    0.00529
   29    0.00305
   30    0.00177
   31   -0.00307
   32    0.01486
   33   -0.00664
   34    0.00216
   35    0.13167
   36   -0.02811
   37   -0.13893
   38   -0.44254
   39   -0.02867
   40   -0.07218
   41   -0.34508
   42   -0.00474
   43   -0.01295
   44    0.00491
   45    0.00038
   46    0.00343
   47   -0.01086
 Ene=    -0.1986
 Spin= Alpha
 Occup= 1.0
    1    0.00237
    2    0.00656
    3   -0.12497
    4    0.01096
    5   -0.10364
    6   -0.06849
    7   -0.01214
    8    0.11386
    9    0.07430
   10   -0.00176
   11   -0.02382
   12    0.01031
   13   -0.00102
   14    0.01026
   15   -0.04487
   16   -0.20859
   17   -0.39085
   18   -0.00794
   19    0.01388
   20    0.09839
   21   -0.04103
   22    0.35470
   23    0.20571
   24   -0.02537
   25    0.25953
   26    0.18847
   27   -0.00390
   28   -0.00824
   29    0.00932
   30    0.00172
   31    0.00070
   32    0.00609
   33   -0.00802
   34    0.01393
   35    0.09966
   36   -0.03124
   37    0.32722
   38    0.24289
   39   -0.03117
   40    0.27370
   41    0.16210
   42   -0.00322
   43    0.00972
   44   -0.00944
   45   -0.00333
   46   -0.00016
   47   -0.00349
 Ene=     0.0968
 Spin= Alpha
 Occup= 0.0
    1    0.00008
    2   -0.00009
    3   -0.00097
    4    0.51077
    5    0.09520
    6   -0.06266
    7    0.62110
    8    0.11572
    9   -0.07636
   10   -0.00381
   11    0.00675
   12   -0.00291
   13    0.02043
   14    0.01408
   15    0.00002
   16    0.00009
   17    0.00075
   18   -0.00001
   19    0.00004
   20    0.00004
   21   -0.33270
   22   -0.06208
   23    0.04083
   24   -0.39306
   25   -0.07330
   26    0.04824
   27    0.00126
   28    0.00052
   29   -0.00177
   30    0.00174
   31    0.00830
   32    0.00137
   33   -0.00002
   34    0.00004
   35    0.00020
   36   -0.33275
   37   -0.06202
   38    0.04076
   39   -0.39314
   40   -0.07322
   41    0.04818
   42   -0.00306
   43    0.00265
   44    0.00041
   45    0.00784
   46   -0.00170
   47   -0.00136
 Ene=     0.1822
 Spin= Alpha
 Occup= 0.0
    1   -0.11476
    2    0.15864
    3    1.82714
    4   -0.03224
    5    0.30891
    6    0.20448
    7   -0.07005
    8    0.66926
    9    0.44316
   10   -0.00005
   11   -0.00525
   12   -0.01159
   13    0.00224
   14   -0.00317
   15    0.00776
   16   -0.04973
   17   -1.97211
   18    0.01914
   19   -0.03226
   20   -0.22896
   21   -0.00517
   22   -0.05264
   23   -0.12116
   24    0.00077
   25   -0.15224
   26   -0.22382
   27    0.00979
   28    0.00067
   29    0.00159
   30    0.00248
   31   -0.00182
   32    0.00316
   33    0.01913
   34   -0.03223
   35   -0.22893
   36    0.02412
   37   -0.12992
   38    0.00027
   39    0.04253
   40   -0.26239
   41   -0.05077
   42    0.00991
   43    0.00372
   44   -0.00158
   45    0.00164
   46   -0.00199
   47    0.00156
 Ene=     0.3374
 Spin= Alpha
 Occup= 0.0
    1    0.07770
    2    0.11241
    3   -2.40231
    4   -0.02640
    5    0.24992
    6    0.16553
    7   -0.13704
    8    1.29402
    9    0.85516
   10   -0.01687
   11    0.01749
   12    0.00018
   13   -0.00461
   14   -0.00197
   15    0.02384
   16    0.16051
   17   -0.58453
   18   -0.08636
   19    0.15037
   20    1.33546
   21    0.04598
   22   -0.16039
   23    0.13084
   24    0.17024
   25   -0.45071
   26    0.70286
   27   -0.03716
   28   -0.02123
   29    0.03501
   30   -0.00470
   31    0.01174
   32   -0.00673
   33   -0.08645
   34    0.15043
   35    1.33786
   36   -0.03450
   37    0.05206
   38   -0.20250
   39   -0.16995
   40    0.44723
   41   -0.70583
   42   -0.03561
   43    0.01908
   44   -0.00697
   45   -0.01599
   46    0.00977
   47   -0.02789
 Ene=     0.3493
 Spin= Alpha
 Occup= 0.0
    1    0.00006
    2    0.00001
    3   -0.00072
    4    0.03556
    5   -0.09346
    6    0.14720
    7    0.53100
    8   -1.40059
    9    2.20099
   10    0.00018
   11    0.00501
   12   -0.00519
   13   -0.00141
   14   -0.00024
   15   -0.00261
   16    0.00012
   17   -0.00079
   18   -0.08110
   19    0.05643
   20    1.76745
   21   -0.01727
   22    0.14941
   23    0.08700
   24    0.04961
   25    0.20855
   26    0.72357
   27   -0.04446
   28   -0.05426
   29   -0.00042
   30    0.00139
   31    0.00723
   32   -0.00496
   33    0.08101
   34   -0.05622
   35   -1.76634
   36    0.01312
   37   -0.13857
   38   -0.10411
   39    0.14899
   40   -0.73255
   41    0.09899
   42    0.04281
   43    0.01391
   44    0.04241
   45    0.00990
   46   -0.00524
   47    0.02610
 Ene=     0.5679
 Spin= Alpha
 Occup= 0.0
    1   -0.00001
    2    0.00021
    3   -0.00009
    4   -0.97782
    5   -0.18244
    6    0.11990
    7    1.24471
    8    0.23221
    9   -0.15246
   10   -0.00358
   11    0.00637
   12   -0.00273
   13    0.01926
   14    0.01327
   15    0.00002
   16    0.00002
   17   -0.00016
   18   -0.00000
   19    0.00008
   20   -0.00009
   21   -0.08509
   22   -0.01589
   23    0.01043
   24   -0.14914
   25   -0.02781
   26    0.01829
   27   -0.01558
   28    0.00343
   29    0.01221
   30    0.00888
   31   -0.05639
   32   -0.01202
   33    0.00000
   34    0.00001
   35   -0.00013
   36   -0.08513
   37   -0.01591
   38    0.01042
   39   -0.14905
   40   -0.02787
   41    0.01830
   42    0.02233
   43   -0.01526
   44   -0.00706
   45   -0.04482
   46    0.03164
   47    0.01200
 Ene=     0.6540
 Spin= Alpha
 Occup= 0.0
    1   -0.08177
    2    0.75350
    3   -0.73375
    4    0.07079
    5   -0.67266
    6   -0.44697
    7   -0.12171
    8    1.15611
    9    0.76728
   10    0.08156
   11   -0.00472
   12   -0.09612
   13    0.03449
   14   -0.04735
   15    0.11102
   16    0.07254
   17   -0.63000
   18    0.01363
   19   -0.05734
   20    0.43571
   21   -0.03815
   22   -0.00854
   23   -0.32427
   24    0.03719
   25   -0.13312
   26    0.10078
   27   -0.03148
   28   -0.02367
   29    0.12007
   30   -0.01263
   31    0.03698
   32   -0.07884
   33    0.01358
   34   -0.05700
   35    0.43468
   36    0.06993
   37   -0.29353
   38    0.12352
   39   -0.02705
   40    0.03639
   41   -0.16511
   42   -0.02874
   43    0.04135
   44    0.05240
   45   -0.03079
   46    0.03376
   47   -0.11287
 Ene=     0.7052
 Spin= Alpha
 Occup= 0.0
    1   -0.00009
    2    0.00076
    3   -0.00004
    4    0.22065
    5   -0.58271
    6    0.91302
    7   -0.17082
    8    0.45144
    9   -0.70624
   10   -0.00395
   11   -0.10085
   12    0.10479
   13    0.02826
   14    0.00490
   15    0.05300
   16    0.00026
   17   -0.00092
   18   -0.03380
   19    0.16484
   20   -0.26096
   21    0.03827
   22   -0.03980
   23    0.25186
   24    0.03449
   25   -0.01878
   26    0.25309
   27    0.06238
   28    0.06294
   29   -0.10582
   30   -0.00176
   31   -0.02090
   32   -0.01685
   33    0.03387
   34   -0.16503
   35    0.26132
   36    0.05636
   37   -0.21001
   38    0.13978
   39    0.05572
   40   -0.21943
   41    0.12037
   42   -0.05660
   43    0.08314
   44   -0.04592
   45   -0.03916
   46    0.01381
   47   -0.05994
 Ene=     0.7767
 Spin= Alpha
 Occup= 0.0
    1    0.01774
    2    0.79025
    3   -1.60719
    4   -0.02352
    5    0.22348
    6    0.14786
    7    0.11837
    8   -1.12550
    9   -0.74570
   10   -0.01668
   11    0.11924
   12    0.06778
   13   -0.02103
   14   -0.00110
   15    0.07261
   16    0.71664
   17    0.67240
   18    0.00440
   19    0.03445
   20   -0.06269
   21   -0.07183
   22    0.36193
   23   -0.03652
   24    0.00503
   25    0.00223
   26    0.04493
   27   -0.01549
   28    0.02438
   29    0.03202
   30   -0.01198
   31    0.01132
   32   -0.02233
   33    0.00438
   34    0.03451
   35   -0.06236
   36    0.02195
   37    0.11441
   38    0.35205
   39   -0.00978
   40    0.04147
   41   -0.01632
   42   -0.01585
   43    0.01508
   44    0.04173
   45   -0.00940
   46    0.01182
   47   -0.01742
 Ene=     0.8743
 Spin= Alpha
 Occup= 0.0
    1   -0.06576
    2    0.78475
    3   -2.24763
    4   -0.05405
    5    0.51376
    6    0.34053
    7    0.08685
    8   -0.82624
    9   -0.54744
   10    0.13534
   11   -0.08649
   12   -0.08507
   13    0.04848
   14   -0.03022
   15   -0.01363
   16   -0.82262
   17    1.85298
   18    0.00172
   19    0.07517
   20    0.11383
   21   -0.03934
   22    0.01248
   23   -0.30220
   24    0.05565
   25    0.03224
   26    0.50346
   27    0.01709
   28    0.01820
   29    0.12258
   30    0.00468
   31    0.00744
   32    0.04020
   33    0.00174
   34    0.07486
   35    0.11435
   36    0.06610
   37   -0.26557
   38    0.13450
   39   -0.10802
   40    0.46384
   41   -0.17459
   42    0.02135
   43    0.12728
   44    0.00901
   45   -0.02585
   46    0.00205
   47   -0.01701
 Ene=     0.9044
 Spin= Alpha
 Occup= 0.0
    1    0.03857
    2    1.02760
    3   -1.08461
    4   -0.00491
    5    0.04812
    6    0.03248
    7    0.03948
    8   -0.37687
    9   -0.25068
   10   -0.00372
   11    0.10383
   12    0.19771
   13   -0.03988
   14    0.05164
   15   -0.11510
   16   -0.24014
   17    0.80140
   18    0.00569
   19   -0.32415
   20    0.51120
   21    0.07684
   22   -0.16792
   23    0.37117
   24   -0.12207
   25    0.19966
   26   -0.69243
   27   -0.14470
   28   -0.13329
   29   -0.12464
   30    0.00150
   31   -0.00308
   32    0.03131
   33    0.00563
   34   -0.32755
   35    0.51742
   36   -0.08782
   37    0.26815
   38   -0.30851
   39    0.15911
   40   -0.54384
   41    0.46990
   42   -0.14486
   43   -0.10853
   44   -0.15331
   45   -0.00577
   46   -0.00441
   47    0.01758
 Ene=     0.9110
 Spin= Alpha
 Occup= 0.0
    1    0.00012
    2    0.00392
    3   -0.00450
    4   -0.02646
    5    0.06997
    6   -0.10927
    7    0.05175
    8   -0.13758
    9    0.21255
   10   -0.00570
   11   -0.14252
   12    0.14932
   13    0.03985
   14    0.00720
   15    0.07446
   16   -0.00111
   17    0.00333
   18   -0.00813
   19   -0.45630
   20    0.85910
   21    0.05130
   22    0.08151
   23    0.54339
   24   -0.08611
   25    0.01698
   26   -0.67745
   27   -0.15929
   28   -0.16990
   29   -0.20794
   30    0.00105
   31   -0.00486
   32   -0.01134
   33    0.00818
   34    0.45370
   35   -0.85485
   36    0.11424
   37   -0.51811
   38    0.14249
   39   -0.14661
   40    0.59627
   41   -0.28763
   42    0.15966
   43    0.20642
   44    0.16794
   45   -0.01155
   46    0.00300
   47   -0.00813
 Ene=     0.9988
 Spin= Alpha
 Occup= 0.0
    1    0.00000
    2   -0.00002
    3    0.00009
    4   -0.00008
    5   -0.00001
    6    0.00000
    7    0.00031
    8    0.00000
    9   -0.00003
   10    0.02155
   11   -0.01062
   12   -0.01092
   13   -0.03053
   14    0.05004
   15    0.01365
   16    0.00003
   17   -0.00003
   18   -0.00000
   19   -0.00000
   20   -0.00001
   21   -0.66434
   22   -0.12411
   23    0.08133
   24    0.76869
   25    0.14362
   26   -0.09411
   27   -0.01094
   28    0.00618
   29    0.00475
   30    0.01792
   31   -0.02166
   32   -0.00653
   33    0.00000
   34    0.00001
   35   -0.00008
   36    0.66466
   37    0.12418
   38   -0.08136
   39   -0.76923
   40   -0.14373
   41    0.09418
   42   -0.00970
   43    0.00399
   44    0.00572
   45    0.01130
   46   -0.02622
   47   -0.00653
 Ene=     1.0664
 Spin= Alpha
 Occup= 0.0
    1   -0.00001
    2   -0.00011
    3   -0.00032
    4   -0.11893
    5   -0.02203
    6    0.01471
    7    0.76858
    8    0.14233
    9   -0.09503
   10   -0.00606
   11    0.01083
   12   -0.00480
   13    0.03261
   14    0.02244
   15    0.00020
   16    0.00033
   17    0.00035
   18   -0.00000
   19   -0.00009
   20   -0.00010
   21    0.65863
   22    0.12244
   23   -0.08083
   24   -0.95533
   25   -0.17745
   26    0.11740
   27   -0.00026
   28    0.00859
   29   -0.00836
   30    0.02657
   31    0.03925
   32    0.00404
   33   -0.00000
   34   -0.00006
   35   -0.00007
   36    0.65822
   37    0.12240
   38   -0.08138
   39   -0.95491
   40   -0.17742
   41    0.11813
   42   -0.01299
   43    0.01479
   44   -0.00182
   45    0.04458
   46    0.00978
   47   -0.00401
 Ene=     1.0897
 Spin= Alpha
 Occup= 0.0
    1   -0.00001
    2   -0.00001
    3    0.00010
    4   -0.02681
    5    0.07058
    6   -0.11105
    7    0.11369
    8   -0.29901
    9    0.47056
   10   -0.00418
   11   -0.10448
   12    0.10865
   13    0.02925
   14    0.00515
   15    0.05469
   16   -0.00008
   17   -0.00024
   18    0.00067
   19    0.05552
   20    0.11566
   21    0.11701
   22   -0.62436
   23    0.00139
   24   -0.17444
   25    0.88799
   26   -0.06745
   27   -0.01513
   28    0.03144
   29    0.00773
   30   -0.02219
   31    0.02070
   32   -0.08907
   33   -0.00067
   34   -0.05555
   35   -0.11540
   36    0.02427
   37    0.25276
   38    0.58243
   39   -0.04876
   40   -0.30093
   41   -0.85523
   42    0.01818
   43    0.04549
   44   -0.08774
   45    0.00067
   46   -0.02446
   47    0.04876
 Ene=     1.1206
 Spin= Alpha
 Occup= 0.0
    1    0.00377
    2    0.15175
    3   -1.21322
    4   -0.02785
    5    0.26592
    6    0.17606
    7    0.14208
    8   -1.35878
    9   -0.89989
   10   -0.03730
   11    0.10265
   12   -0.04771
   13   -0.00510
   14   -0.03888
   15    0.19816
   16    0.38192
   17    0.77458
   18   -0.00901
   19   -0.16869
   20    0.27764
   21    0.07567
   22   -0.51270
   23   -0.15743
   24   -0.12595
   25    0.97943
   26    0.45416
   27   -0.04408
   28   -0.00981
   29   -0.08108
   30   -0.01736
   31    0.00920
   32   -0.07491
   33   -0.00902
   34   -0.16876
   35    0.27799
   36    0.01384
   37   -0.34938
   38   -0.41323
   39   -0.05996
   40    0.80519
   41    0.72725
   42   -0.04829
   43   -0.11551
   44    0.02874
   45    0.01212
   46    0.01453
   47   -0.01948
 Ene=     1.4524
 Spin= Alpha
 Occup= 0.0
    1    0.04144
    2    0.13078
    3    3.30827
    4    0.00018
    5    0.00023
    6    0.00013
    7    0.19181
    8   -1.81962
    9   -1.20521
   10    0.11384
   11   -0.07534
   12    0.05406
   13    0.02001
   14    0.02439
   15   -0.17465
   16    0.14427
   17    0.59769
   18    0.07608
   19    1.19596
   20   -3.78413
   21    0.05559
   22   -0.18699
   23    0.16943
   24   -0.28589
   25    0.73681
   26   -1.21387
   27    0.43990
   28    0.14230
   29    0.37856
   30    0.05777
   31    0.00299
   32   -0.07014
   33    0.07608
   34    1.19601
   35   -3.78449
   36   -0.04398
   37    0.07567
   38   -0.24301
   39    0.29194
   40   -0.78777
   41    1.17997
   42    0.44632
   43    0.29744
   44    0.21695
   45    0.01413
   46   -0.00426
   47   -0.15143
 Ene=     1.5036
 Spin= Alpha
 Occup= 0.0
    1   -0.00000
    2   -0.00000
    3   -0.00010
    4    0.00003
    5    0.00001
    6   -0.00000
    7   -0.00007
    8    0.00003
    9    0.00008
   10    0.20037
   11   -0.09871
   12   -0.10167
   13   -0.28341
   14    0.46542
   15    0.12694
   16   -0.00001
   17   -0.00002
   18   -0.00000
   19   -0.00006
   20    0.00018
   21    0.10149
   22    0.01897
   23   -0.01244
   24    0.07558
   25    0.01410
   26   -0.00919
   27   -0.06672
   28   -0.01784
   29    0.08451
   30   -0.06228
   31   -0.39402
   32   -0.06775
   33   -0.00000
   34   -0.00001
   35    0.00005
   36   -0.10158
   37   -0.01897
   38    0.01244
   39   -0.07538
   40   -0.01409
   41    0.00920
   42   -0.14625
   43    0.12282
   44    0.02341
   45    0.36379
   46   -0.10008
   47   -0.06708
 Ene=     1.5269
 Spin= Alpha
 Occup= 0.0
    1   -0.00001
    2   -0.00009
    3   -0.00057
    4   -0.02304
    5    0.06081
    6   -0.09540
    7   -0.52913
    8    1.39603
    9   -2.19213
   10   -0.00568
   11   -0.14218
   12    0.14793
   13    0.03975
   14    0.00695
   15    0.07459
   16   -0.00002
   17    0.00020
   18    0.06732
   19    1.21835
   20   -3.73146
   21    0.01207
   22    0.11009
   23    0.26665
   24   -0.10845
   25   -0.25087
   26   -1.26886
   27    0.15266
   28    0.30465
   29    0.46356
   30   -0.03535
   31    0.04581
   32   -0.00198
   33   -0.06733
   34   -1.21844
   35    3.73205
   36    0.05368
   37   -0.28356
   38    0.00575
   39   -0.26597
   40    1.23878
   41   -0.28203
   42   -0.15752
   43   -0.42577
   44   -0.33759
   45    0.06921
   46   -0.03987
   47    0.06536
 Ene=     1.5514
 Spin= Alpha
 Occup= 0.0
    1   -0.00004
    2   -0.00015
    3   -0.00277
    4    0.16365
    5    0.03039
    6   -0.02015
    7   -0.18267
    8   -0.03207
    9    0.02344
   10   -0.10737
   11    0.18976
   12   -0.08248
   13    0.57568
   14    0.39624
   15    0.00054
   16   -0.00016
   17   -0.00073
   18   -0.00005
   19   -0.00099
   20    0.00308
   21    0.00194
   22    0.00054
   23   -0.00041
   24    0.14099
   25    0.02547
   26   -0.01626
   27   -0.14193
   28    0.10448
   29    0.03673
   30    0.30844
   31   -0.16431
   32   -0.07188
   33   -0.00006
   34   -0.00117
   35    0.00361
   36    0.00220
   37    0.00027
   38   -0.00004
   39    0.14047
   40    0.02700
   41   -0.01842
   42    0.08680
   43   -0.00815
   44   -0.07951
   45   -0.01547
   46    0.36646
   47    0.07285
 Ene=     1.7814
 Spin= Alpha
 Occup= 0.0
    1    0.02158
    2    0.20721
    3   -2.16090
    4    0.00372
    5   -0.03535
    6   -0.02337
    7   -0.01911
    8    0.17878
    9    0.11860
   10    0.43617
   11   -0.25264
   12   -0.14219
   13    0.13248
   14   -0.05260
   15   -0.17728
   16    0.46954
   17    0.15436
   18   -0.02149
   19   -0.48128
   20    1.48759
   21   -0.00373
   22   -0.01200
   23   -0.04847
   24    0.08633
   25   -0.10620
   26    0.54256
   27    0.34798
   28   -0.47454
   29   -0.12917
   30    0.19691
   31   -0.09010
   32    0.08987
   33   -0.02148
   34   -0.48134
   35    1.48758
   36    0.01007
   37   -0.04838
   38    0.00867
   39   -0.12179
   40    0.44284
   41   -0.31964
   42    0.36284
   43   -0.11330
   44   -0.50530
   45    0.09608
   46   -0.10822
   47   -0.10015
 Ene=     1.8250
 Spin= Alpha
 Occup= 0.0
    1   -0.00001
    2   -0.00001
    3    0.00078
    4    0.03532
    5   -0.09317
    6    0.14641
    7    0.16441
    8   -0.43369
    9    0.68121
   10    0.01248
   11    0.31627
   12   -0.32875
   13   -0.08853
   14   -0.01552
   15   -0.16550
   16   -0.00031
   17   -0.00012
   18   -0.01873
   19   -0.05272
   20    0.71265
   21    0.04862
   22   -0.13697
   23    0.18813
   24   -0.01216
   25    0.15739
   26    0.14090