[Molden Format]
[Title]
Written by TeraChem
[Atoms] Angs
C   1   6      1.96341    1.70393   -2.84408
H   2   1      1.86442    2.64472   -2.22097
O   3   8      1.78440    1.85344   -4.07890
O   4   8      2.23717    0.65872   -2.20265
[GTO]
    1 0
 s    6 1.00
         3047.524900             0.001835
          457.369510             0.014037
          103.948690             0.068843
           29.210155             0.232184
            9.286663             0.467941
            3.163927             0.362312
 s    3 1.00
            7.868272            -0.119332
            1.881288            -0.160854
            0.544249             1.143456
 s    1 1.00
            0.168714             1.000000
 p    3 1.00
            7.868272             0.068999
            1.881288             0.316424
            0.544249             0.744308
 p    1 1.00
            0.168714             1.000000
 d    1 1.00
            0.800000             1.000000

    2 0
 s    3 1.00
           18.731137             0.033495
            2.825394             0.234727
            0.640122             0.813757
 s    1 1.00
            0.161278             1.000000

    3 0
 s    6 1.00
         5484.671700             0.001831
          825.234950             0.013950
          188.046960             0.068445
           52.964500             0.232714
           16.897570             0.470193
            5.799635             0.358521
 s    3 1.00
           15.539616            -0.110778
            3.599934            -0.148026
            1.013762             1.130767
 s    1 1.00
            0.270006             1.000000
 p    3 1.00
           15.539616             0.070874
            3.599934             0.339753
            1.013762             0.727159
 p    1 1.00
            0.270006             1.000000
 d    1 1.00
            0.800000             1.000000

    4 0
 s    6 1.00
         5484.671700             0.001831
          825.234950             0.013950
          188.046960             0.068445
           52.964500             0.232714
           16.897570             0.470193
            5.799635             0.358521
 s    3 1.00
           15.539616            -0.110778
            3.599934            -0.148026
            1.013762             1.130767
 s    1 1.00
            0.270006             1.000000
 p    3 1.00
           15.539616             0.070874
            3.599934             0.339753
            1.013762             0.727159
 p    1 1.00
            0.270006             1.000000
 d    1 1.00
            0.800000             1.000000

[MO]
 Ene=   -19.0543
 Spin= Alpha
 Occup= 1.0
    1    0.00001
    2    0.00052
    3   -0.00255
    4    0.00004
    5   -0.00014
    6    0.00011
    7   -0.00050
    8    0.00200
    9   -0.00102
   10   -0.00002
   11   -0.00040
   12   -0.00017
   13    0.00012
   14   -0.00007
   15    0.00026
   16    0.00003
   17   -0.00028
   18   -0.09541
   19   -0.00247
   20   -0.00106
   21   -0.00002
   22    0.00008
   23   -0.00005
   24    0.00006
   25   -0.00034
   26    0.00001
   27    0.00077
   28    0.00071
   29    0.00080
   30    0.00002
   31   -0.00001
   32    0.00007
   33    0.98821
   34    0.02573
   35    0.01235
   36   -0.00020
   37    0.00074
   38   -0.00047
   39   -0.00027
   40    0.00101
   41   -0.00066
   42   -0.00791
   43   -0.00769
   44   -0.00781
   45   -0.00007
   46    0.00005
   47   -0.00017
 Ene=   -19.0543
 Spin= Alpha
 Occup= 1.0
    1   -0.00002
    2   -0.00063
    3    0.00310
    4    0.00002
    5   -0.00002
    6    0.00016
    7   -0.00021
    8   -0.00029
    9   -0.00212
   10    0.00002
   11    0.00012
   12    0.00060
   13   -0.00004
   14    0.00011
   15   -0.00012
   16   -0.00003
   17    0.00034
   18   -0.98821
   19   -0.02573
   20   -0.01237
   21   -0.00013
   22    0.00011
   23   -0.00089
   24   -0.00020
   25    0.00025
   26   -0.00123
   27    0.00792
   28    0.00791
   29    0.00758
   30    0.00001
   31   -0.00006
   32    0.00005
   33   -0.09541
   34   -0.00250
   35   -0.00132
   36    0.00003
   37   -0.00014
   38    0.00000
   39    0.00007
   40   -0.00006
   41    0.00045
   42    0.00076
   43    0.00066
   44    0.00083
   45    0.00003
   46    0.00001
   47    0.00003
 Ene=   -10.2365
 Spin= Alpha
 Occup= 1.0
    1   -0.99287
    2   -0.04780
    3    0.00496
    4   -0.00005
    5    0.00046
    6    0.00031
    7   -0.00022
    8    0.00211
    9    0.00139
   10    0.00967
   11    0.00885
   12    0.00838
   13    0.00026
   14   -0.00029
   15    0.00054
   16    0.00035
   17   -0.00262
   18    0.00011
   19   -0.00026
   20    0.00177
   21    0.00000
   22    0.00006
   23    0.00010
   24    0.00032
   25   -0.00065
   26    0.00164
   27   -0.00027
   28   -0.00019
   29    0.00047
   30   -0.00003
   31    0.00013
   32   -0.00010
   33    0.00011
   34   -0.00026
   35    0.00177
   36   -0.00002
   37    0.00011
   38    0.00001
   39   -0.00038
   40    0.00121
   41   -0.00127
   42   -0.00025
   43    0.00027
   44   -0.00002
   45   -0.00016
   46    0.00010
   47   -0.00034
 Ene=    -0.9818
 Spin= Alpha
 Occup= 1.0
    1    0.13867
    2   -0.26818
    3   -0.09011
    4   -0.00804
    5    0.07574
    6    0.04994
    7    0.00236
    8   -0.02235
    9   -0.01481
   10    0.02218
   11    0.00444
   12   -0.00824
   13    0.00606
   14   -0.00739
   15    0.01519
   16   -0.03566
   17    0.01258
   18    0.13247
   19   -0.28559
   20   -0.27345
   21   -0.01691
   22    0.01964
   23   -0.10822
   24   -0.00705
   25    0.01249
   26   -0.03855
   27    0.00455
   28    0.00673
   29   -0.00902
   30    0.00012
   31   -0.00276
   32    0.00428
   33    0.13267
   34   -0.28601
   35   -0.27382
   36    0.02427
   37   -0.08908
   38    0.06239
   39    0.00885
   40   -0.02947
   41    0.02733
   42    0.00415
   43   -0.00327
   44    0.00138
   45    0.00292
   46   -0.00227
   47    0.00953
 Ene=    -0.8984
 Spin= Alpha
 Occup= 1.0
    1    0.00008
    2   -0.00015
    3   -0.00006
    4    0.05394
    5   -0.14232
    6    0.22358
    7    0.00190
    8   -0.00503
    9    0.00786
   10    0.00096
   11    0.02365
   12   -0.02460
   13   -0.00662
   14   -0.00116
   15   -0.01239
   16   -0.00002
   17    0.00001
   18    0.15183
   19   -0.33005
   20   -0.32101
   21   -0.01167
   22    0.00000
   23   -0.09540
   24   -0.00200
   25   -0.00364
   26   -0.02193
   27    0.00450
   28    0.00669
   29   -0.00215
   30   -0.00064
   31   -0.00069
   32   -0.00131
   33   -0.15165
   34    0.32967
   35    0.32062
   36   -0.02069
   37    0.08536
   38   -0.03873
   39   -0.00461
   40    0.02108
   41   -0.00549
   42   -0.00417
   43    0.00130
   44   -0.00616
   45   -0.00159
   46    0.00029
   47   -0.00287
 Ene=    -0.5081
 Spin= Alpha
 Occup= 1.0
    1    0.13118
    2   -0.28456
    3   -0.23825
    4    0.02322
    5   -0.22049
    6   -0.14604
    7    0.00940
    8   -0.08935
    9   -0.05919
   10    0.00988
   11    0.00038
   12    0.01159
   13    0.00017
   14    0.00303
   15   -0.01474
   16   -0.23290
   17   -0.13704
   18   -0.07135
   19    0.15341
   20    0.24018
   21   -0.00373
   22   -0.07286
   23   -0.14139
   24   -0.00420
   25   -0.03301
   26   -0.08454
   27   -0.00147
   28   -0.00078
   29   -0.01875
   30   -0.00083
   31   -0.00140
   32   -0.00560
   33   -0.07138
   34    0.15345
   35    0.24031
   36    0.02791
   37   -0.15640
   38   -0.01038
   39    0.01710
   40   -0.08920
   41    0.00361
   42   -0.00219
   43   -0.01877
   44   -0.00005
   45    0.00420
   46   -0.00051
   47    0.00383
 Ene=    -0.4012
 Spin= Alpha
 Occup= 1.0
    1    0.06170
    2   -0.15278
    3   -0.08752
    4   -0.02836
    5    0.26944
    6    0.17832
    7   -0.00607
    8    0.05810
    9    0.03849
   10    0.00774
   11    0.00987
   12    0.01050
   13   -0.00057
   14    0.00053
   15   -0.00065
   16    0.11479
   17    0.14050
   18   -0.06159
   19    0.11994
   20    0.26465
   21   -0.06785
   22    0.20071
   23   -0.24890
   24   -0.04184
   25    0.12928
   26   -0.14506
   27   -0.00437
   28   -0.00651
   29   -0.02139
   30    0.00245
   31   -0.00526
   32    0.01458
   33   -0.06162
   34    0.12001
   35    0.26477
   36    0.06182
   37   -0.14147
   38    0.28839
   39    0.03650
   40   -0.07745
   41    0.17953
   42   -0.00448
   43   -0.00915
   44   -0.01865
   45    0.00320
   46   -0.00514
   47    0.01597
 Ene=    -0.3671
 Spin= Alpha
 Occup= 1.0
    1    0.00004
    2   -0.00008
    3   -0.00012
    4    0.07233
    5   -0.19099
    6    0.29999
    7    0.01425
    8   -0.03768
    9    0.05921
   10    0.00023
   11    0.00572
   12   -0.00594
   13   -0.00160
   14   -0.00028
   15   -0.00300
   16   -0.00001
   17   -0.00001
   18   -0.06176
   19    0.11170
   20    0.30607
   21   -0.03860
   22   -0.03825
   23   -0.37346
   24   -0.02060
   25   -0.02860
   26   -0.21176
   27   -0.00580
   28   -0.00631
   29   -0.02725
   30   -0.00016
   31   -0.00257
   32   -0.00269
   33    0.06171
   34   -0.11160
   35   -0.30585
   36   -0.07965
   37    0.35006
   38   -0.11606
   39   -0.04490
   40    0.20132
   41   -0.05935
   42    0.00653
   43    0.02478
   44    0.00802
   45   -0.00501
   46    0.00166
   47   -0.00699
 Ene=    -0.3521
 Spin= Alpha
 Occup= 1.0
    1    0.00001
    2   -0.00002
    3   -0.00004
    4    0.36074
    5    0.06721
    6   -0.04419
    7    0.21788
    8    0.04065
    9   -0.02671
   10    0.00184
   11   -0.00323
   12    0.00140
   13   -0.00979
   14   -0.00673
   15   -0.00001
   16   -0.00002
   17   -0.00003
   18    0.00000
   19    0.00001
   20   -0.00004
   21    0.32066
   22    0.05976
   23   -0.03924
   24    0.20201
   25    0.03765
   26   -0.02474
   27    0.00521
   28   -0.00090
   29   -0.00429
   30   -0.00225
   31    0.01989
   32    0.00412
   33    0.00002
   34   -0.00003
   35   -0.00007
   36    0.32086
   37    0.05998
   38   -0.03943
   39    0.20217
   40    0.03779
   41   -0.02484
   42   -0.00781
   43    0.00550
   44    0.00231
   45    0.01617
   46   -0.01032
   47   -0.00412
 Ene=    -0.2167
 Spin= Alpha
 Occup= 1.0
    1   -0.00000
    2   -0.00000
    3    0.00004
    4   -0.00010
    5    0.00001
    6    0.00001
    7   -0.00007
    8   -0.00006
    9    0.00005
   10    0.01443
   11   -0.00712
   12   -0.00731
   13   -0.02043
   14    0.03351
   15    0.00915
   16    0.00003
   17    0.00003
   18    0.00000
   19   -0.00001
   20    0.00002
   21   -0.44091
   22   -0.08253
   23    0.05394
   24   -0.35457
   25   -0.06636
   26    0.04338
   27   -0.00395
   28    0.00019
   29    0.00376
   30    0.00016
   31   -0.01748
   32   -0.00339
   33    0.00000
   34   -0.00001
   35   -0.00006
   36    0.44075
   37    0.08234
   38   -0.05384
   39    0.35448
   40    0.06621
   41   -0.04330
   42   -0.00671
   43    0.00507
   44    0.00164
   45    0.01494
   46   -0.00729
   47   -0.00336
 Ene=    -0.2043
 Spin= Alpha
 Occup= 1.0
    1   -0.00001
    2   -0.00004
    3    0.00056
    4    0.00710
    5   -0.01837
    6    0.03003
    7   -0.04067
    8    0.10694
    9   -0.16909
   10    0.00110
   11    0.02725
   12   -0.02827
   13   -0.00759
   14   -0.00137
   15   -0.01401
   16    0.00102
   17    0.00189
   18    0.00670
   19   -0.00230
   20   -0.13231
   21   -0.09058
   22    0.44968
   23   -0.05268
   24   -0.07207
   25    0.33617
   26   -0.07496
   27    0.00445
   28    0.00529
   29    0.00303
   30    0.00177
   31   -0.00307
   32    0.01485
   33   -0.00663
   34    0.00216
   35    0.13144
   36   -0.02812
   37   -0.13880
   38   -0.44266
   39   -0.02867
   40   -0.07216
   41   -0.34520
   42   -0.00473
   43   -0.01293
   44    0.00491
   45    0.00038
   46    0.00343
   47   -0.01085
 Ene=    -0.2017
 Spin= Alpha
 Occup= 1.0
    1    0.00245
    2    0.00648
    3   -0.12569
    4    0.01100
    5   -0.10393
    6   -0.06866
    7   -0.01213
    8    0.11362
    9    0.07407
   10   -0.00174
   11   -0.02382
   12    0.01031
   13   -0.00101
   14    0.01026
   15   -0.04487
   16   -0.20858
   17   -0.38991
   18   -0.00795
   19    0.01394
   20    0.09839
   21   -0.04109
   22    0.35486
   23    0.20558
   24   -0.02543
   25    0.25978
   26    0.18842
   27   -0.00388
   28   -0.00823
   29    0.00934
   30    0.00173
   31    0.00070
   32    0.00609
   33   -0.00803
   34    0.01400
   35    0.09971
   36   -0.03125
   37    0.32713
   38    0.24285
   39   -0.03118
   40    0.27374
   41    0.16216
   42   -0.00320
   43    0.00973
   44   -0.00943
   45   -0.00333
   46   -0.00016
   47   -0.00350
 Ene=     0.0938
 Spin= Alpha
 Occup= 0.0
    1    0.00008
    2   -0.00009
    3   -0.00096
    4    0.51088
    5    0.09523
    6   -0.06265
    7    0.62101
    8    0.11571
    9   -0.07631
   10   -0.00381
   11    0.00675
   12   -0.00291
   13    0.02042
   14    0.01407
   15    0.00002
   16    0.00009
   17    0.00075
   18   -0.00001
   19    0.00004
   20    0.00004
   21   -0.33263
   22   -0.06207
   23    0.04081
   24   -0.39300
   25   -0.07330
   26    0.04821
   27    0.00126
   28    0.00053
   29   -0.00178
   30    0.00175
   31    0.00832
   32    0.00137
   33   -0.00002
   34    0.00004
   35    0.00020
   36   -0.33268
   37   -0.06201
   38    0.04074
   39   -0.39308
   40   -0.07321
   41    0.04815
   42   -0.00306
   43    0.00265
   44    0.00041
   45    0.00786
   46   -0.00169
   47   -0.00136
 Ene=     0.1797
 Spin= Alpha
 Occup= 0.0
    1   -0.11480
    2    0.15896
    3    1.82772
    4   -0.03225
    5    0.30877
    6    0.20436
    7   -0.07003
    8    0.66870
    9    0.44272
   10    0.00003
   11   -0.00527
   12   -0.01157
   13    0.00225
   14   -0.00317
   15    0.00770
   16   -0.05013
   17   -1.97234
   18    0.01916
   19   -0.03230
   20   -0.22923
   21   -0.00519
   22   -0.05246
   23   -0.12107
   24    0.00074
   25   -0.15200
   26   -0.22385
   27    0.00981
   28    0.00066
   29    0.00160
   30    0.00248
   31   -0.00183
   32    0.00318
   33    0.01915
   34   -0.03228
   35   -0.22920
   36    0.02411
   37   -0.12977
   38    0.00042
   39    0.04256
   40   -0.26232
   41   -0.05051
   42    0.00992
   43    0.00374
   44   -0.00159
   45    0.00164
   46   -0.00200
   47    0.00156
 Ene=     0.3344
 Spin= Alpha
 Occup= 0.0
    1    0.07764
    2    0.11273
    3   -2.40210
    4   -0.02641
    5    0.24989
    6    0.16549
    7   -0.13731
    8    1.29580
    9    0.85614
   10   -0.01683
   11    0.01747
   12    0.00013
   13   -0.00459
   14   -0.00199
   15    0.02386
   16    0.16044
   17   -0.58628
   18   -0.08637
   19    0.15032
   20    1.33619
   21    0.04594
   22   -0.16028
   23    0.13072
   24    0.17025
   25   -0.45066
   26    0.70324
   27   -0.03718
   28   -0.02122
   29    0.03503
   30   -0.00470
   31    0.01174
   32   -0.00674
   33   -0.08647
   34    0.15038
   35    1.33868
   36   -0.03446
   37    0.05197
   38   -0.20236
   39   -0.16999
   40    0.44753
   41   -0.70601
   42   -0.03563
   43    0.01908
   44   -0.00695
   45   -0.01600
   46    0.00977
   47   -0.02791
 Ene=     0.3463
 Spin= Alpha
 Occup= 0.0
    1    0.00006
    2    0.00001
    3   -0.00077
    4    0.03562
    5   -0.09360
    6    0.14746
    7    0.53054
    8   -1.39951
    9    2.19969
   10    0.00018
   11    0.00497
   12   -0.00515
   13   -0.00140
   14   -0.00024
   15   -0.00259
   16    0.00012
   17   -0.00080
   18   -0.08108
   19    0.05664
   20    1.76593
   21   -0.01727
   22    0.14941
   23    0.08707
   24    0.04948
   25    0.20885
   26    0.72330
   27   -0.04436
   28   -0.05417
   29   -0.00036
   30    0.00139
   31    0.00722
   32   -0.00495
   33    0.08098
   34   -0.05642
   35   -1.76477
   36    0.01314
   37   -0.13863
   38   -0.10408
   39    0.14892
   40   -0.73238
   41    0.09866
   42    0.04272
   43    0.01384
   44    0.04232
   45    0.00989
   46   -0.00524
   47    0.02609
 Ene=     0.5650
 Spin= Alpha
 Occup= 0.0
    1   -0.00001
    2    0.00021
    3   -0.00009
    4   -0.97779
    5   -0.18245
    6    0.11984
    7    1.24464
    8    0.23221
    9   -0.15238
   10   -0.00359
   11    0.00638
   12   -0.00273
   13    0.01929
   14    0.01329
   15    0.00002
   16    0.00002
   17   -0.00016
   18   -0.00000
   19    0.00008
   20   -0.00009
   21   -0.08518
   22   -0.01591
   23    0.01044
   24   -0.14904
   25   -0.02779
   26    0.01827
   27   -0.01557
   28    0.00343
   29    0.01220
   30    0.00886
   31   -0.05639
   32   -0.01201
   33    0.00000
   34    0.00001
   35   -0.00013
   36   -0.08522
   37   -0.01593
   38    0.01043
   39   -0.14895
   40   -0.02786
   41    0.01828
   42    0.02233
   43   -0.01527
   44   -0.00705
   45   -0.04482
   46    0.03162
   47    0.01199
 Ene=     0.6509
 Spin= Alpha
 Occup= 0.0
    1   -0.08180
    2    0.75370
    3   -0.73344
    4    0.07082
    5   -0.67263
    6   -0.44692
    7   -0.12178
    8    1.15615
    9    0.76723
   10    0.08163
   11   -0.00476
   12   -0.09613
   13    0.03449
   14   -0.04733
   15    0.11093
   16    0.07183
   17   -0.62952
   18    0.01366
   19   -0.05744
   20    0.43572
   21   -0.03809
   22   -0.00882
   23   -0.32438
   24    0.03713
   25   -0.13295
   26    0.10064
   27   -0.03149
   28   -0.02374
   29    0.12013
   30   -0.01260
   31    0.03697
   32   -0.07876
   33    0.01361
   34   -0.05708
   35    0.43466
   36    0.06994
   37   -0.29371
   38    0.12333
   39   -0.02700
   40    0.03632
   41   -0.16490
   42   -0.02874
   43    0.04140
   44    0.05233
   45   -0.03080
   46    0.03375
   47   -0.11287
 Ene=     0.7021
 Spin= Alpha
 Occup= 0.0
    1   -0.00009
    2    0.00078
    3   -0.00004
    4    0.22059
    5   -0.58262
    6    0.91297
    7   -0.17096
    8    0.45186
    9   -0.70694
   10   -0.00395
   11   -0.10086
   12    0.10480
   13    0.02827
   14    0.00489
   15    0.05302
   16    0.00025
   17   -0.00094
   18   -0.03377
   19    0.16467
   20   -0.26130
   21    0.03826
   22   -0.03980
   23    0.25188
   24    0.03441
   25   -0.01871
   26    0.25266
   27    0.06235
   28    0.06290
   29   -0.10586
   30   -0.00177
   31   -0.02087
   32   -0.01694
   33    0.03384
   34   -0.16487
   35    0.26168
   36    0.05637
   37   -0.21003
   38    0.13982
   39    0.05562
   40   -0.21906
   41    0.12015
   42   -0.05656
   43    0.08323
   44   -0.04593
   45   -0.03917
   46    0.01380
   47   -0.05990
 Ene=     0.7737
 Spin= Alpha
 Occup= 0.0
    1    0.01773
    2    0.79069
    3   -1.60763
    4   -0.02348
    5    0.22302
    6    0.14754
    7    0.11841
    8   -1.12524
    9   -0.74542
   10   -0.01665
   11    0.11920
   12    0.06779
   13   -0.02104
   14   -0.00109
   15    0.07253
   16    0.71644
   17    0.67296
   18    0.00442
   19    0.03434
   20   -0.06274
   21   -0.07187
   22    0.36205
   23   -0.03659
   24    0.00502
   25    0.00201
   26    0.04457
   27   -0.01552
   28    0.02434
   29    0.03201
   30   -0.01199
   31    0.01133
   32   -0.02239
   33    0.00440
   34    0.03439
   35   -0.06242
   36    0.02194
   37    0.11445
   38    0.35218
   39   -0.00971
   40    0.04105
   41   -0.01638
   42   -0.01588
   43    0.01501
   44    0.04174
   45   -0.00940
   46    0.01183
   47   -0.01747
 Ene=     0.8717
 Spin= Alpha
 Occup= 0.0
    1   -0.06594
    2    0.77813
    3   -2.24097
    4   -0.05407
    5    0.51373
    6    0.34046
    7    0.08675
    8   -0.82478
    9   -0.54639
   10    0.13534
   11   -0.08721
   12   -0.08619
   13    0.04871
   14   -0.03046
   15   -0.01315
   16   -0.82105
   17    1.84911
   18    0.00168
   19    0.07733
   20    0.11000
   21   -0.03979
   22    0.01353
   23   -0.30442
   24    0.05633
   25    0.03122
   26    0.50768
   27    0.01804
   28    0.01911
   29    0.12328
   30    0.00468
   31    0.00741
   32    0.04011
   33    0.00170
   34    0.07704
   35    0.11050
   36    0.06662
   37   -0.26713
   38    0.13641
   39   -0.10899
   40    0.46720
   41   -0.17733
   42    0.02230
   43    0.12797
   44    0.00995
   45   -0.02579
   46    0.00204
   47   -0.01699
 Ene=     0.9014
 Spin= Alpha
 Occup= 0.0
    1    0.03818
    2    1.03214
    3   -1.09915
    4   -0.00526
    5    0.05142
    6    0.03469
    7    0.04004
    8   -0.38203
    9   -0.25411
   10   -0.00288
   11    0.10325
   12    0.19714
   13   -0.03957
   14    0.05145
   15   -0.11521
   16   -0.24559
   17    0.81355
   18    0.00568
   19   -0.32354
   20    0.51193
   21    0.07658
   22   -0.16782
   23    0.36938
   24   -0.12160
   25    0.19955
   26   -0.68903
   27   -0.14458
   28   -0.13315
   29   -0.12383
   30    0.00153
   31   -0.00305
   32    0.03163
   33    0.00562
   34   -0.32710
   35    0.51845
   36   -0.08745
   37    0.26673
   38   -0.30777
   39    0.15839
   40   -0.54099
   41    0.46860
   42   -0.14476
   43   -0.10771
   44   -0.15333
   45   -0.00594
   46   -0.00441
   47    0.01752
 Ene=     0.9079
 Spin= Alpha
 Occup= 0.0
    1    0.00012
    2    0.00411
    3   -0.00472
    4   -0.02650
    5    0.07010
    6   -0.10945
    7    0.05175
    8   -0.13766
    9    0.21253
   10   -0.00570
   11   -0.14251
   12    0.14936
   13    0.03985
   14    0.00719
   15    0.07447
   16   -0.00116
   17    0.00349
   18   -0.00812
   19   -0.45649
   20    0.85930
   21    0.05124
   22    0.08162
   23    0.54335
   24   -0.08607
   25    0.01683
   26   -0.67760
   27   -0.15936
   28   -0.16998
   29   -0.20798
   30    0.00105
   31   -0.00485
   32   -0.01132
   33    0.00817
   34    0.45379
   35   -0.85486
   36    0.11420
   37   -0.51800
   38    0.14234
   39   -0.14658
   40    0.59624
   41   -0.28748
   42    0.15968
   43    0.20643
   44    0.16798
   45   -0.01155
   46    0.00300
   47   -0.00812
 Ene=     0.9958
 Spin= Alpha
 Occup= 0.0
    1    0.00000
    2   -0.00002
    3    0.00009
    4   -0.00008
    5   -0.00001
    6    0.00000
    7    0.00032
    8    0.00000
    9   -0.00003
   10    0.02154
   11   -0.01062
   12   -0.01092
   13   -0.03051
   14    0.05001
   15    0.01365
   16    0.00003
   17   -0.00003
   18   -0.00000
   19   -0.00000
   20   -0.00001
   21   -0.66436
   22   -0.12412
   23    0.08130
   24    0.76869
   25    0.14363
   26   -0.09407
   27   -0.01094
   28    0.00618
   29    0.00476
   30    0.01791
   31   -0.02169
   32   -0.00653
   33    0.00000
   34    0.00001
   35   -0.00008
   36    0.66468
   37    0.12419
   38   -0.08133
   39   -0.76924
   40   -0.14374
   41    0.09414
   42   -0.00971
   43    0.00400
   44    0.00572
   45    0.01132
   46   -0.02624
   47   -0.00654
 Ene=     1.0633
 Spin= Alpha
 Occup= 0.0
    1   -0.00001
    2   -0.00011
    3   -0.00032
    4   -0.11900
    5   -0.02205
    6    0.01471
    7    0.76858
    8    0.14235
    9   -0.09498
   10   -0.00606
   11    0.01084
   12   -0.00480
   13    0.03261
   14    0.02244
   15    0.00020
   16    0.00033
   17    0.00035
   18   -0.00000
   19   -0.00009
   20   -0.00010
   21    0.65865
   22    0.12246
   23   -0.08079
   24   -0.95524
   25   -0.17745
   26    0.11733
   27   -0.00029
   28    0.00861
   29   -0.00835
   30    0.02662
   31    0.03921
   32    0.00403
   33   -0.00000
   34   -0.00006
   35   -0.00007
   36    0.65823
   37    0.12241
   38   -0.08134
   39   -0.95481
   40   -0.17741
   41    0.11806
   42   -0.01297
   43    0.01479
   44   -0.00184
   45    0.04457
   46    0.00984
   47   -0.00399
 Ene=     1.0866
 Spin= Alpha
 Occup= 0.0
    1   -0.00001
    2   -0.00001
    3    0.00011
    4   -0.02683
    5    0.07063
    6   -0.11116
    7    0.11366
    8   -0.29894
    9    0.47056
   10   -0.00418
   11   -0.10440
   12    0.10857
   13    0.02922
   14    0.00513
   15    0.05466
   16   -0.00008
   17   -0.00025
   18    0.00069
   19    0.05552
   20    0.11542
   21    0.11704
   22   -0.62439
   23    0.00154
   24   -0.17450
   25    0.88805
   26   -0.06781
   27   -0.01512
   28    0.03142
   29    0.00783
   30   -0.02218
   31    0.02072
   32   -0.08911
   33   -0.00069
   34   -0.05556
   35   -0.11515
   36    0.02426
   37    0.25271
   38    0.58249
   39   -0.04877
   40   -0.30076
   41   -0.85540
   42    0.01817
   43    0.04545
   44   -0.08778
   45    0.00069
   46   -0.02447
   47    0.04882
 Ene=     1.1175
 Spin= Alpha
 Occup= 0.0
    1    0.00379
    2    0.15227
    3   -1.21341
    4   -0.02788
    5    0.26603
    6    0.17611
    7    0.14230
    8   -1.36009
    9   -0.90062
   10   -0.03725
   11    0.10267
   12   -0.04771
   13   -0.00511
   14   -0.03888
   15    0.19811
   16    0.38196
   17    0.77608
   18   -0.00898
   19   -0.16837
   20    0.27628
   21    0.07571
   22   -0.51269
   23   -0.15725
   24   -0.12614
   25    0.97971
   26    0.45339
   27   -0.04393
   28   -0.00981
   29   -0.08096
   30   -0.01733
   31    0.00921
   32   -0.07498
   33   -0.00899
   34   -0.16844
   35    0.27662
   36    0.01384
   37   -0.34927
   38   -0.41325
   39   -0.05987
   40    0.80471
   41    0.72772
   42   -0.04814
   43   -0.11545
   44    0.02880
   45    0.01214
   46    0.01452
   47   -0.01956
 Ene=     1.4492
 Spin= Alpha
 Occup= 0.0
    1    0.04144
    2    0.13064
    3    3.30801
    4    0.00020
    5    0.00009
    6    0.00004
    7    0.19205
    8   -1.82097
    9   -1.20596
   10    0.11383
   11   -0.07525
   12    0.05406
   13    0.02002
   14    0.02436
   15   -0.17446
   16    0.14436
   17    0.59870
   18    0.07609
   19    1.19607
   20   -3.78485
   21    0.05556
   22   -0.18678
   23    0.16962
   24   -0.28578
   25    0.73620
   26   -1.21432
   27    0.44008
   28    0.14221
   29    0.37866
   30    0.05787
   31    0.00293
   32   -0.06987
   33    0.07608
   34    1.19609
   35   -3.78515
   36   -0.04399
   37    0.07588
   38   -0.24290
   39    0.29194
   40   -0.78823
   41    1.17969
   42    0.44651
   43    0.29764
   44    0.21673
   45    0.01414
   46   -0.00432
   47   -0.15135
 Ene=     1.5006
 Spin= Alpha
 Occup= 0.0
    1   -0.00000
    2   -0.00000
    3   -0.00010
    4    0.00003
    5    0.00001
    6   -0.00000
    7   -0.00007
    8    0.00003
    9    0.00008
   10    0.20034
   11   -0.09870
   12   -0.10164
   13   -0.28339
   14    0.46547
   15    0.12693
   16   -0.00001
   17   -0.00002
   18   -0.00000
   19   -0.00006
   20    0.00018
   21    0.10145
   22    0.01896
   23   -0.01243
   24    0.07557
   25    0.01409
   26   -0.00918
   27   -0.06661
   28   -0.01791
   29    0.08447
   30   -0.06249
   31   -0.39402
   32   -0.06773
   33   -0.00000
   34   -0.00001
   35    0.00006
   36   -0.10155
   37   -0.01896
   38    0.01243
   39   -0.07536
   40   -0.01408
   41    0.00919
   42   -0.14623
   43    0.12285
   44    0.02337
   45    0.36386
   46   -0.09992
   47   -0.06704
 Ene=     1.5237
 Spin= Alpha
 Occup= 0.0
    1   -0.00001
    2   -0.00009
    3   -0.00061
    4   -0.02303
    5    0.06081
    6   -0.09541
    7   -0.52874
    8    1.39516
    9   -2.19105
   10   -0.00568
   11   -0.14223
   12    0.14798
   13    0.03977
   14    0.00694
   15    0.07464
   16   -0.00002
   17    0.00019
   18    0.06732
   19    1.21807
   20   -3.73012
   21    0.01204
   22    0.11018
   23    0.26662
   24   -0.10828
   25   -0.25127
   26   -1.26862
   27    0.15260
   28    0.30469
   29    0.46351
   30   -0.03538
   31    0.04580
   32   -0.00204
   33   -0.06732
   34   -1.21819
   35    3.73081
   36    0.05368
   37   -0.28357
   38    0.00570
   39   -0.26592
   40    1.23871
   41   -0.28175
   42   -0.15746
   43   -0.42568
   44   -0.33768
   45    0.06920
   46   -0.03988
   47    0.06538
 Ene=     1.5484
 Spin= Alpha
 Occup= 0.0
    1   -0.00004
    2   -0.00015
    3   -0.00274
    4    0.16377
    5    0.03042
    6   -0.02016
    7   -0.18274
    8   -0.03210
    9    0.02343
   10   -0.10742
   11    0.18976
   12   -0.08243
   13    0.57563
   14    0.39615
   15    0.00056
   16   -0.00016
   17   -0.00072
   18   -0.00005
   19   -0.00098
   20    0.00305
   21    0.00193
   22    0.00054
   23   -0.00041
   24    0.14104
   25    0.02548
   26   -0.01627
   27   -0.14194
   28    0.10445
   29    0.03678
   30    0.30833
   31   -0.16461
   32   -0.07191
   33   -0.00006
   34   -0.00116
   35    0.00359
   36    0.00220
   37    0.00027
   38   -0.00004
   39    0.14053
   40    0.02701
   41   -0.01842
   42    0.08686
   43   -0.00824
   44   -0.07948
   45   -0.01573
   46    0.36649
   47    0.07289
 Ene=     1.7785
 Spin= Alpha
 Occup= 0.0
    1    0.02157
    2    0.20722
    3   -2.16109
    4    0.00375
    5   -0.03563
    6   -0.02355
    7   -0.01919
    8    0.17946
    9    0.11907
   10    0.43583
   11   -0.25251
   12   -0.14202
   13    0.13239
   14   -0.05249
   15   -0.17727
   16    0.46966
   17    0.15408
   18   -0.02149
   19   -0.48145
   20    1.48799
   21   -0.00374
   22   -0.01200
   23   -0.04858
   24    0.08631
   25   -0.10610
   26    0.54273
   27    0.34801
   28   -0.47452
   29   -0.12926
   30    0.19698
   31   -0.09017
   32    0.09029
   33   -0.02147
   34   -0.48151
   35    1.48793
   36    0.01010
   37   -0.04849
   38    0.00873
   39   -0.12181
   40    0.44297
   41   -0.31968
   42    0.36289
   43   -0.11313
   44   -0.50557
   45    0.09609
   46   -0.10826
   47   -0.09990
 Ene=     1.8221
 Spin= Alpha
 Occup= 0.0
    1   -0.00001
    2   -0.00001
    3    0.00080
    4    0.03525
    5   -0.09299
    6    0.14616
    7    0.16419
    8   -0.43315
    9    0.68048
   10    0.01247
   11    0.31594
   12   -0.32841
   13   -0.08845
   14   -0.01547
   15   -0.16538
   16   -0.00032
   17   -0.00012
   18   -0.01869
   19   -0.05276
   20    0.71182
   21    0.04853
   22   -0.13664
   23    0.18794
   24   -0.01216
   25    0.15725
   26    0.14078