[Molden Format]
[Title]
Written by TeraChem
[Atoms] Angs
O   1   8     -0.99054    9.07399    4.09352
C   2   6     -2.11133    9.40320    4.13607
O   3   8     -3.23213    9.73241    4.17862
[GTO]
    1 0
 s    6 1.00
         5484.671700             0.001831
          825.234950             0.013950
          188.046960             0.068445
           52.964500             0.232714
           16.897570             0.470193
            5.799635             0.358521
 s    3 1.00
           15.539616            -0.110778
            3.599934            -0.148026
            1.013762             1.130767
 s    1 1.00
            0.270006             1.000000
 p    3 1.00
           15.539616             0.070874
            3.599934             0.339753
            1.013762             0.727159
 p    1 1.00
            0.270006             1.000000
 d    1 1.00
            0.800000             1.000000

    2 0
 s    6 1.00
         3047.524900             0.001835
          457.369510             0.014037
          103.948690             0.068843
           29.210155             0.232184
            9.286663             0.467941
            3.163927             0.362312
 s    3 1.00
            7.868272            -0.119332
            1.881288            -0.160854
            0.544249             1.143456
 s    1 1.00
            0.168714             1.000000
 p    3 1.00
            7.868272             0.068999
            1.881288             0.316424
            0.544249             0.744308
 p    1 1.00
            0.168714             1.000000
 d    1 1.00
            0.800000             1.000000

    3 0
 s    6 1.00
         5484.671700             0.001831
          825.234950             0.013950
          188.046960             0.068445
           52.964500             0.232714
           16.897570             0.470193
            5.799635             0.358521
 s    3 1.00
           15.539616            -0.110778
            3.599934            -0.148026
            1.013762             1.130767
 s    1 1.00
            0.270006             1.000000
 p    3 1.00
           15.539616             0.070874
            3.599934             0.339753
            1.013762             0.727159
 p    1 1.00
            0.270006             1.000000
 d    1 1.00
            0.800000             1.000000

[MO]
 Ene=   -19.2324
 Spin= Alpha
 Occup= 1.0
    1   -0.69880
    2   -0.01847
    3   -0.00959
    4    0.00156
    5   -0.00046
    6   -0.00006
    7    0.00185
    8   -0.00054
    9   -0.00007
   10    0.00442
   11    0.00563
   12    0.00575
   13    0.00045
   14    0.00006
   15   -0.00002
   16    0.00014
   17   -0.00016
   18    0.00537
   19   -0.00000
   20    0.00000
   21    0.00000
   22   -0.00003
   23    0.00001
   24    0.00000
   25    0.00294
   26    0.00030
   27    0.00006
   28   -0.00098
   29   -0.00013
   30    0.00004
   31   -0.70526
   32   -0.01863
   33   -0.00972
   34   -0.00157
   35    0.00046
   36    0.00006
   37   -0.00187
   38    0.00055
   39    0.00007
   40    0.00447
   41    0.00569
   42    0.00580
   43    0.00045
   44    0.00006
   45   -0.00002
 Ene=   -19.2324
 Spin= Alpha
 Occup= 1.0
    1    0.70505
    2    0.01753
    3    0.01435
    4   -0.00078
    5    0.00023
    6    0.00003
    7   -0.00172
    8    0.00051
    9    0.00007
   10   -0.00597
   11   -0.00619
   12   -0.00621
   13   -0.00008
   14   -0.00001
   15    0.00000
   16   -0.00000
   17    0.00000
   18   -0.00002
   19   -0.00014
   20    0.00004
   21    0.00001
   22   -0.00701
   23    0.00206
   24    0.00027
   25   -0.00001
   26   -0.00000
   27   -0.00000
   28    0.00000
   29    0.00000
   30   -0.00000
   31   -0.69858
   32   -0.01736
   33   -0.01426
   34   -0.00077
   35    0.00023
   36    0.00003
   37   -0.00170
   38    0.00050
   39    0.00006
   40    0.00593
   41    0.00614
   42    0.00616
   43    0.00008
   44    0.00001
   45   -0.00000
 Ene=   -10.3826
 Spin= Alpha
 Occup= 1.0
    1    0.00027
    2   -0.00010
    3    0.00325
    4   -0.00044
    5    0.00013
    6    0.00002
    7   -0.00282
    8    0.00083
    9    0.00011
   10    0.00083
   11   -0.00024
   12   -0.00034
   13   -0.00040
   14   -0.00005
   15    0.00002
   16   -0.99282
   17   -0.04949
   18    0.00074
   19   -0.00000
   20    0.00000
   21    0.00000
   22   -0.00000
   23    0.00000
   24   -0.00000
   25    0.00664
   26    0.01009
   27    0.01041
   28    0.00128
   29    0.00017
   30   -0.00005
   31    0.00027
   32   -0.00010
   33    0.00325
   34    0.00044
   35   -0.00013
   36   -0.00002
   37    0.00282
   38   -0.00083
   39   -0.00011
   40    0.00083
   41   -0.00024
   42   -0.00034
   43   -0.00040
   44   -0.00005
   45    0.00002
 Ene=    -1.1565
 Spin= Alpha
 Occup= 1.0
    1   -0.13501
    2    0.29140
    3    0.26704
    4   -0.12001
    5    0.03525
    6    0.00456
    7   -0.05106
    8    0.01500
    9    0.00194
   10    0.01024
   11   -0.00619
   12   -0.00772
   13   -0.00610
   14   -0.00079
   15    0.00023
   16   -0.15643
   17    0.30269
   18    0.03694
   19    0.00000
   20   -0.00000
   21   -0.00000
   22    0.00000
   23    0.00000
   24    0.00000
   25    0.02576
   26   -0.02494
   27   -0.02965
   28   -0.01882
   29   -0.00243
   30    0.00071
   31   -0.13501
   32    0.29139
   33    0.26704
   34    0.12001
   35   -0.03525
   36   -0.00456
   37    0.05106
   38   -0.01500
   39   -0.00194
   40    0.01024
   41   -0.00619
   42   -0.00772
   43   -0.00610
   44   -0.00079
   45    0.00023
 Ene=    -1.1155
 Spin= Alpha
 Occup= 1.0
    1   -0.14701
    2    0.32560
    3    0.27033
    4   -0.12410
    5    0.03645
    6    0.00471
    7   -0.01993
    8    0.00585
    9    0.00076
   10    0.00617
   11   -0.00432
   12   -0.00529
   13   -0.00389
   14   -0.00050
   15    0.00015
   16    0.00000
   17   -0.00000
   18   -0.00000
   19    0.32258
   20   -0.09475
   21   -0.01225
   22   -0.01882
   23    0.00553
   24    0.00071
   25   -0.00000
   26    0.00000
   27    0.00000
   28   -0.00000
   29   -0.00000
   30    0.00000
   31    0.14701
   32   -0.32560
   33   -0.27033
   34   -0.12410
   35    0.03645
   36    0.00471
   37   -0.01993
   38    0.00585
   39    0.00076
   40   -0.00617
   41    0.00432
   42    0.00529
   43    0.00389
   44    0.00050
   45   -0.00015
 Ene=    -0.5608
 Spin= Alpha
 Occup= 1.0
    1    0.09414
    2   -0.21005
    3   -0.33746
    4   -0.31744
    5    0.09324
    6    0.01205
    7   -0.17057
    8    0.05010
    9    0.00648
   10    0.03057
   11    0.00022
   12   -0.00259
   13   -0.01127
   14   -0.00146
   15    0.00043
   16   -0.13544
   17    0.31408
   18    0.17923
   19   -0.00000
   20    0.00000
   21    0.00000
   22    0.00000
   23    0.00000
   24    0.00000
   25   -0.02291
   26   -0.01346
   27   -0.01258
   28    0.00351
   29    0.00045
   30   -0.00013
   31    0.09414
   32   -0.21005
   33   -0.33746
   34    0.31744
   35   -0.09324
   36   -0.01205
   37    0.17057
   38   -0.05010
   39   -0.00648
   40    0.03057
   41    0.00022
   42   -0.00259
   43   -0.01127
   44   -0.00146
   45    0.00043
 Ene=    -0.5155
 Spin= Alpha
 Occup= 1.0
    1    0.07100
    2   -0.15472
    3   -0.29083
    4   -0.37681
    5    0.11067
    6    0.01432
    7   -0.17734
    8    0.05209
    9    0.00674
   10    0.02190
   11    0.00021
   12   -0.00181
   13   -0.00805
   14   -0.00104
   15    0.00031
   16   -0.00000
   17    0.00000
   18   -0.00000
   19    0.33597
   20   -0.09869
   21   -0.01274
   22   -0.00153
   23    0.00045
   24    0.00006
   25   -0.00000
   26   -0.00000
   27   -0.00000
   28    0.00000
   29    0.00000
   30    0.00000
   31   -0.07100
   32    0.15472
   33    0.29083
   34   -0.37681
   35    0.11067
   36    0.01432
   37   -0.17734
   38    0.05209
   39    0.00674
   40   -0.02190
   41   -0.00021
   42    0.00181
   43    0.00805
   44    0.00104
   45   -0.00031
 Ene=    -0.5078
 Spin= Alpha
 Occup= 1.0
    1   -0.00000
    2    0.00000
    3    0.00002
    4   -0.09882
    5   -0.32320
    6   -0.10249
    7   -0.05478
    8   -0.17915
    9   -0.05681
   10    0.01330
   11   -0.01278
   12   -0.00052
   13    0.02285
   14    0.00767
   15   -0.00329
   16    0.00000
   17   -0.00000
   18   -0.00000
   19   -0.11219
   20   -0.36690
   21   -0.11635
   22   -0.04258
   23   -0.13915
   24   -0.04412
   25   -0.00000
   26    0.00000
   27    0.00000
   28   -0.00000
   29   -0.00000
   30    0.00000
   31    0.00000
   32   -0.00000
   33   -0.00002
   34   -0.09882
   35   -0.32320
   36   -0.10249
   37   -0.05478
   38   -0.17915
   39   -0.05681
   40   -0.01330
   41    0.01278
   42    0.00052
   43   -0.02285
   44   -0.00767
   45    0.00329
 Ene=    -0.5078
 Spin= Alpha
 Occup= 1.0
    1    0.00000
    2   -0.00001
    3   -0.00001
    4    0.01709
    5    0.10187
    6   -0.33773
    7    0.00947
    8    0.05646
    9   -0.18720
   10   -0.00230
   11    0.00403
   12   -0.00173
   13   -0.00752
   14    0.02629
   15   -0.00741
   16   -0.00000
   17    0.00000
   18    0.00000
   19    0.01942
   20    0.11564
   21   -0.38340
   22    0.00737
   23    0.04386
   24   -0.14541
   25   -0.00000
   26   -0.00000
   27    0.00000
   28   -0.00000
   29   -0.00000
   30    0.00000
   31   -0.00000
   32    0.00001
   33    0.00001
   34    0.01709
   35    0.10187
   36   -0.33773
   37    0.00947
   38    0.05646
   39   -0.18720
   40    0.00230
   41   -0.00403
   42    0.00173
   43    0.00752
   44   -0.02629
   45    0.00741
 Ene=    -0.3666
 Spin= Alpha
 Occup= 1.0
    1    0.00000
    2   -0.00000
    3   -0.00000
    4    0.09993
    5    0.29426
    6    0.35560
    7    0.06948
    8    0.20457
    9    0.24721
   10   -0.00761
   11    0.00658
   12    0.00103
   13   -0.01164
   14   -0.01546
   15    0.00508
   16    0.00000
   17   -0.00000
   18    0.00001
   19    0.00000
   20    0.00000
   21    0.00000
   22    0.00000
   23   -0.00000
   24    0.00000
   25    0.02022
   26   -0.01749
   27   -0.00273
   28    0.03095
   29    0.04110
   30   -0.01351
   31    0.00000
   32   -0.00000
   33   -0.00000
   34   -0.09993
   35   -0.29426
   36   -0.35560
   37   -0.06948
   38   -0.20457
   39   -0.24722
   40   -0.00761
   41    0.00658
   42    0.00103
   43   -0.01164
   44   -0.01546
   45    0.00508
 Ene=    -0.3666
 Spin= Alpha
 Occup= 1.0
    1   -0.00000
    2    0.00000
    3    0.00000
    4   -0.08944
    5   -0.34460
    6    0.31030
    7   -0.06218
    8   -0.23956
    9    0.21572
   10    0.00681
   11   -0.00770
   12    0.00090
   13    0.01399
   14   -0.01378
   15    0.00343
   16    0.00000
   17    0.00000
   18   -0.00001
   19   -0.00000
   20   -0.00000
   21    0.00000
   22   -0.00000
   23    0.00000
   24    0.00000
   25   -0.01810
   26    0.02048
   27   -0.00238
   28   -0.03719
   29    0.03665
   30   -0.00912
   31   -0.00000
   32    0.00000
   33    0.00000
   34    0.08944
   35    0.34460
   36   -0.31030
   37    0.06218
   38    0.23957
   39   -0.21572
   40    0.00681
   41   -0.00770
   42    0.00090
   43    0.01399
   44   -0.01378
   45    0.00343
 Ene=     0.0353
 Spin= Alpha
 Occup= 0.0
    1    0.00000
    2    0.00000
    3   -0.00005
    4   -0.10216
    5   -0.35514
    6    0.05667
    7   -0.10685
    8   -0.37149
    9    0.05927
   10   -0.00730
   11    0.00746
   12   -0.00015
   13   -0.01342
   14    0.00250
   15   -0.00013
   16   -0.00000
   17    0.00000
   18    0.00000
   19    0.16601
   20    0.57710
   21   -0.09208
   22    0.16069
   23    0.55837
   24   -0.08910
   25   -0.00000
   26    0.00000
   27    0.00000
   28    0.00000
   29    0.00000
   30   -0.00000
   31   -0.00000
   32   -0.00000
   33    0.00005
   34   -0.10216
   35   -0.35514
   36    0.05667
   37   -0.10685
   38   -0.37148
   39    0.05927
   40    0.00730
   41   -0.00746
   42    0.00015
   43    0.01342
   44   -0.00250
   45    0.00013
 Ene=     0.0353
 Spin= Alpha
 Occup= 0.0
    1    0.00000
    2    0.00000
    3   -0.00003
    4   -0.02889
    5   -0.05061
    6   -0.36929
    7   -0.03021
    8   -0.05295
    9   -0.38628
   10   -0.00206
   11    0.00106
   12    0.00100
   13   -0.00174
   14   -0.01519
   15    0.00455
   16   -0.00000
   17    0.00000
   18    0.00000
   19    0.04694
   20    0.08225
   21    0.60010
   22    0.04546
   23    0.07957
   24    0.58063
   25   -0.00000
   26    0.00000
   27    0.00000
   28    0.00000
   29   -0.00000
   30    0.00000
   31   -0.00000
   32   -0.00000
   33    0.00003
   34   -0.02889
   35   -0.05061
   36   -0.36929
   37   -0.03021
   38   -0.05295
   39   -0.38628
   40    0.00206
   41   -0.00106
   42   -0.00100
   43    0.00174
   44    0.01519
   45   -0.00455
 Ene=     0.0926
 Spin= Alpha
 Occup= 0.0
    1   -0.07622
    2    0.17986
    3    0.85809
    4   -0.28461
    5    0.08360
    6    0.01081
    7   -0.53604
    8    0.15744
    9    0.02035
   10    0.02791
   11   -0.01577
   12   -0.01983
   13   -0.01621
   14   -0.00210
   15    0.00062
   16    0.10045
   17   -0.07585
   18   -2.21434
   19    0.00000
   20    0.00000
   21    0.00000
   22    0.00000
   23    0.00000
   24    0.00000
   25    0.03540
   26   -0.01735
   27   -0.02224
   28   -0.01958
   29   -0.00253
   30    0.00074
   31   -0.07622
   32    0.17986
   33    0.85809
   34    0.28461
   35   -0.08361
   36   -0.01081
   37    0.53604
   38   -0.15745
   39   -0.02035
   40    0.02791
   41   -0.01577
   42   -0.01983
   43   -0.01621
   44   -0.00210
   45    0.00062
 Ene=     0.3711
 Spin= Alpha
 Occup= 0.0
    1   -0.10247
    2    0.02988
    3    2.98745
    4    0.09503
    5   -0.02790
    6   -0.00361
    7   -0.84657
    8    0.24868
    9    0.03215
   10   -0.01210
   11   -0.07403
   12   -0.07978
   13   -0.02300
   14   -0.00297
   15    0.00087
   16   -0.00000
   17   -0.00000
   18   -0.00000
   19   -0.07115
   20    0.02103
   21    0.00274
   22   -3.95743
   23    1.16223
   24    0.15020
   25    0.00000
   26   -0.00000
   27    0.00000
   28    0.00000
   29   -0.00000
   30   -0.00000
   31    0.10247
   32   -0.02988
   33   -2.98745
   34    0.09503
   35   -0.02790
   36   -0.00361
   37   -0.84657
   38    0.24868
   39    0.03215
   40    0.01210
   41    0.07403
   42    0.07978
   43    0.02300
   44    0.00297
   45   -0.00087
 Ene=     0.4831
 Spin= Alpha
 Occup= 0.0
    1    0.00001
    2   -0.00002
    3   -0.00033
    4    0.03442
    5    0.11830
    6   -0.00827
    7    0.03800
    8    0.13013
    9   -0.00911
   10   -0.02839
   11    0.02865
   12   -0.00025
   13   -0.05149
   14    0.00456
   15    0.00098
   16   -0.00000
   17    0.00000
   18    0.00000
   19    0.25663
   20    0.88159
   21   -0.06168
   22   -0.36463
   23   -1.25443
   24    0.08773
   25    0.00000
   26   -0.00000
   27    0.00000
   28   -0.00000
   29   -0.00000
   30   -0.00000
   31   -0.00001
   32    0.00002
   33    0.00033
   34    0.03442
   35    0.11830
   36   -0.00827
   37    0.03800
   38    0.13013
   39   -0.00911
   40    0.02839
   41   -0.02865
   42    0.00025
   43    0.05149
   44   -0.00456
   45   -0.00098
 Ene=     0.4831
 Spin= Alpha
 Occup= 0.0
    1   -0.00000
    2    0.00001
    3    0.00009
    4   -0.00663
    5   -0.00669
    6   -0.12313
    7   -0.00734
    8   -0.00734
    9   -0.13547
   10    0.00547
   11   -0.00162
   12   -0.00385
   13    0.00225
   14    0.05848
   15   -0.01733
   16   -0.00000
   17    0.00000
   18   -0.00000
   19   -0.04947
   20   -0.04979
   21   -0.91757
   22    0.07023
   23    0.07089
   24    1.30548
   25   -0.00000
   26    0.00000
   27    0.00000
   28    0.00000
   29    0.00000
   30    0.00000
   31    0.00000
   32   -0.00001
   33   -0.00009
   34   -0.00663
   35   -0.00669
   36   -0.12313
   37   -0.00734
   38   -0.00734
   39   -0.13547
   40   -0.00547
   41    0.00162
   42    0.00385
   43   -0.00225
   44   -0.05848
   45    0.01733
 Ene=     0.5909
 Spin= Alpha
 Occup= 0.0
    1    0.01031
    2   -0.00078
    3    0.52326
    4    0.36669
    5   -0.10769
    6   -0.01392
    7   -0.44602
    8    0.13100
    9    0.01693
   10    0.21076
   11   -0.01662
   12   -0.03773
   13   -0.08440
   14   -0.01091
   15    0.00320
   16   -0.12938
   17    1.09467
   18   -2.06286
   19   -0.00000
   20    0.00000
   21    0.00000
   22    0.00000
   23    0.00000
   24   -0.00000
   25   -0.27268
   26    0.11197
   27    0.14769
   28    0.14278
   29    0.01845
   30   -0.00542
   31    0.01031
   32   -0.00078
   33    0.52325
   34   -0.36669
   35    0.10769
   36    0.01392
   37    0.44602
   38   -0.13099
   39   -0.01693
   40    0.21076
   41   -0.01662
   42   -0.03773
   43   -0.08440
   44   -0.01091
   45    0.00320
 Ene=     0.7348
 Spin= Alpha
 Occup= 0.0
    1   -0.04393
    2    0.25040
    3    0.08102
    4    0.01761
    5   -0.00517
    6   -0.00067
    7   -0.82165
    8    0.24134
    9    0.03119
   10   -0.04452
   11    0.08559
   12    0.09767
   13    0.04830
   14    0.00624
   15   -0.00183
   16    0.00000
   17   -0.00000
   18    0.00000
   19   -1.04150
   20    0.30593
   21    0.03954
   22    0.23759
   23   -0.06981
   24   -0.00902
   25    0.00000
   26   -0.00000
   27   -0.00000
   28   -0.00000
   29   -0.00000
   30    0.00000
   31    0.04393
   32   -0.25040
   33   -0.08102
   34    0.01762
   35   -0.00517
   36   -0.00067
   37   -0.82165
   38    0.24134
   39    0.03119
   40    0.04452
   41   -0.08559
   42   -0.09767
   43   -0.04830
   44   -0.00624
   45    0.00183
 Ene=     0.7780
 Spin= Alpha
 Occup= 0.0
    1    0.01445
    2   -0.37512
    3    0.26077
    4   -0.30970
    5    0.09098
    6    0.01176
    7    0.95619
    8   -0.28087
    9   -0.03631
   10   -0.18924
   11   -0.13345
   12   -0.12827
   13    0.02071
   14    0.00268
   15   -0.00079
   16    0.05128
   17    1.09656
   18   -0.02415
   19    0.00000
   20   -0.00000
   21   -0.00000
   22   -0.00000
   23    0.00000
   24    0.00000
   25    0.31241
   26    0.01689
   27   -0.01054
   28   -0.10969
   29   -0.01418
   30    0.00416
   31    0.01445
   32   -0.37512
   33    0.26077
   34    0.30970
   35   -0.09098
   36   -0.01176
   37   -0.95619
   38    0.28087
   39    0.03631
   40   -0.18924
   41   -0.13345
   42   -0.12827
   43    0.02071
   44    0.00268
   45   -0.00079
 Ene=     0.8767
 Spin= Alpha
 Occup= 0.0
    1   -0.00000
    2    0.00001
    3   -0.00001
    4    0.13682
    5    0.40257
    6    0.48922
    7   -0.17129
    8   -0.50396
    9   -0.61242
   10   -0.00304
   11    0.00263
   12    0.00042
   13   -0.00465
   14   -0.00622
   15    0.00204
   16    0.00000
   17   -0.00003
   18    0.00003
   19   -0.00000
   20    0.00000
   21    0.00000
   22   -0.00000
   23    0.00000
   24   -0.00000
   25    0.04685
   26   -0.04049
   27   -0.00636
   28    0.07164
   29    0.09569
   30   -0.03143
   31   -0.00000
   32    0.00001
   33   -0.00001
   34   -0.13682
   35   -0.40257
   36   -0.48922
   37    0.17129
   38    0.50396
   39    0.61242
   40   -0.00304
   41    0.00263
   42    0.00042
   43   -0.00465
   44   -0.00622
   45    0.00204
 Ene=     0.8767
 Spin= Alpha
 Occup= 0.0
    1    0.00000
    2    0.00001
    3   -0.00003
    4    0.12312
    5    0.47405
    6   -0.42453
    7   -0.15413
    8   -0.59345
    9    0.53145
   10   -0.00274
   11    0.00310
   12   -0.00035
   13   -0.00562
   14    0.00551
   15   -0.00137
   16    0.00000
   17   -0.00002
   18    0.00005
   19   -0.00000
   20    0.00000
   21   -0.00000
   22    0.00000
   23   -0.00000
   24    0.00000
   25    0.04216
   26   -0.04768
   27    0.00552
   28    0.08657
   29   -0.08485
   30    0.02109
   31    0.00000
   32    0.00001
   33   -0.00003
   34   -0.12313
   35   -0.47405
   36    0.42453
   37    0.15413
   38    0.59345
   39   -0.53145
   40   -0.00274
   41    0.00310
   42   -0.00035
   43   -0.00562
   44    0.00551
   45   -0.00137
 Ene=     1.0402
 Spin= Alpha
 Occup= 0.0
    1   -0.05142
    2    0.02037
    3    1.04088
    4   -0.70756
    5    0.20771
    6    0.02675
    7    0.37351
    8   -0.10951
    9   -0.01398
   10   -0.15483
   11   -0.05163
   12   -0.04204
   13    0.03832
   14    0.00496
   15   -0.00146
   16    0.00000
   17   -0.00000
   18    0.00000
   19   -0.54226
   20    0.15930
   21    0.02062
   22   -0.93796
   23    0.27533
   24    0.03542
   25   -0.00000
   26    0.00000
   27   -0.00000
   28   -0.00000
   29   -0.00000
   30    0.00000
   31    0.05142
   32   -0.02037
   33   -1.04088
   34   -0.70756
   35    0.20771
   36    0.02675
   37    0.37351
   38   -0.10951
   39   -0.01398
   40    0.15483
   41    0.05163
   42    0.04204
   43   -0.03832
   44   -0.00496
   45    0.00146
 Ene=     1.0434
 Spin= Alpha
 Occup= 0.0
    1   -0.00001
    2    0.00001
    3    0.00014
    4    0.18130
    5    0.61700
    6    0.00546
    7   -0.31471
    8   -1.07049
    9   -0.00947
   10   -0.03512
   11    0.03505
   12    0.00004
   13   -0.06296
   14    0.00016
   15    0.00280
   16    0.00000
   17    0.00000
   18    0.00000
   19   -0.05269
   20   -0.17883
   21   -0.00158
   22    0.29797
   23    1.01378
   24    0.00898
   25    0.00000
   26   -0.00000
   27   -0.00000
   28    0.00000
   29   -0.00000
   30    0.00000
   31    0.00001
   32   -0.00001
   33   -0.00014
   34    0.18130
   35    0.61700
   36    0.00546
   37   -0.31471
   38   -1.07049
   39   -0.00947
   40    0.03512
   41   -0.03505
   42   -0.00004
   43    0.06296
   44   -0.00016
   45   -0.00280
 Ene=     1.0434
 Spin= Alpha
 Occup= 0.0
    1   -0.00001
    2    0.00001
    3    0.00018
    4    0.02080
    5   -0.01180
    6    0.64266
    7   -0.03623
    8    0.02052
    9   -1.11506
   10   -0.00407
   11   -0.00068
   12    0.00471
   13    0.00202
   14   -0.07170
   15    0.02103
   16    0.00000
   17    0.00000
   18   -0.00000
   19   -0.00616
   20    0.00346
   21   -0.18631
   22    0.03421
   23   -0.01940
   24    1.05598
   25    0.00000
   26   -0.00000
   27   -0.00000
   28   -0.00000
   29    0.00000
   30    0.00000
   31    0.00001
   32   -0.00001
   33   -0.00018
   34    0.02080
   35   -0.01180
   36    0.64266
   37   -0.03623
   38    0.02052
   39   -1.11506
   40    0.00407
   41    0.00068
   42   -0.00471
   43   -0.00202
   44    0.07170
   45   -0.02103
 Ene=     1.3839
 Spin= Alpha
 Occup= 0.0
    1    0.06733
    2    1.15674
    3   -3.54123
    4   -0.06618
    5    0.01945
    6    0.00252
    7    1.30821
    8   -0.38425
    9   -0.04967
   10    0.37961
   11    0.22463
   12    0.21024
   13   -0.05751
   14   -0.00744
   15    0.00216
   16    0.05089
   17    0.38617
   18    3.75088
   19    0.00000
   20   -0.00000
   21   -0.00000
   22   -0.00000
   23   -0.00000
   24   -0.00000
   25    0.27003
   26   -0.11926
   27   -0.15544
   28   -0.14453
   29   -0.01869
   30    0.00546
   31    0.06733
   32    1.15674
   33   -3.54122
   34    0.06618
   35   -0.01945
   36   -0.00252
   37   -1.30821
   38    0.38425
   39    0.04967
   40    0.37961
   41    0.22463
   42    0.21023
   43   -0.05751
   44   -0.00744
   45    0.00216
 Ene=     1.3993
 Spin= Alpha
 Occup= 0.0
    1    0.00000
    2    0.00002
    3   -0.00008
    4    0.00001
    5    0.00004
    6   -0.00001
    7    0.00003
    8    0.00001
    9   -0.00000
   10   -0.02558
   11   -0.30962
   12    0.33521
   13   -0.10374
   14    0.02367
   15    0.03065
   16    0.00000
   17    0.00001
   18    0.00008
   19   -0.00000
   20   -0.00000
   21    0.00000
   22    0.00000
   23    0.00000
   24   -0.00000
   25   -0.04823
   26   -0.58169
   27    0.62991
   28   -0.19524
   29    0.04456
   30    0.05759
   31    0.00000
   32    0.00002
   33   -0.00008
   34   -0.00001
   35   -0.00004
   36    0.00001
   37   -0.00003
   38   -0.00001
   39    0.00000
   40   -0.02558
   41   -0.30962
   42    0.33521
   43   -0.10374
   44    0.02367
   45    0.03065
 Ene=     1.3993
 Spin= Alpha
 Occup= 0.0
    1   -0.00000
    2   -0.00005
    3    0.00016
    4    0.00000
    5   -0.00000
    6    0.00001
    7   -0.00006
    8    0.00002
    9    0.00000
   10   -0.00907
   11   -0.02219
   12    0.03122
   13   -0.02164
   14   -0.10788
   15   -0.37200
   16   -0.00000
   17   -0.00002
   18   -0.00017
   19   -0.00000
   20   -0.00000
   21   -0.00000
   22    0.00000
   23    0.00000
   24    0.00000
   25   -0.01703
   26   -0.04167
   27    0.05870
   28   -0.04067
   29   -0.20277
   30   -0.69904
   31   -0.00000
   32   -0.00005
   33    0.00016
   34   -0.00000
   35    0.00000
   36   -0.00001
   37    0.00006
   38   -0.00002
   39   -0.00000
   40   -0.00907
   41   -0.02219
   42    0.03122
   43   -0.02164
   44   -0.10788
   45   -0.37200
 Ene=     1.4102
 Spin= Alpha
 Occup= 0.0
    1   -0.00000
    2   -0.00004
    3    0.00013
    4    0.04585
    5    0.14659
    6    0.07345
    7    0.01083
    8    0.03481
    9    0.01744
   10    0.19034
   11   -0.17872
   12   -0.01165
   13    0.31915
   14    0.17190
   15   -0.06506
   16   -0.00000
   17   -0.00001
   18   -0.00014
   19    0.00000
   20   -0.00000
   21   -0.00000
   22    0.00000
   23   -0.00000
   24   -0.00000
   25   -0.23862
   26    0.22423
   27    0.01439
   28   -0.39999
   29   -0.21549
   30    0.08156
   31   -0.00000
   32   -0.00004
   33    0.00013
   34   -0.04585
   35   -0.14659
   36   -0.07345
   37   -0.01083
   38   -0.03481
   39   -0.01744
   40    0.19034
   41   -0.17872
   42   -0.01165
   43    0.31915
   44    0.17190
   45   -0.06506
 Ene=     1.4102
 Spin= Alpha
 Occup= 0.0
    1   -0.00000
    2   -0.00002
    3    0.00005
    4    0.01535
    5    0.07209
    6   -0.15347
    7    0.00363
    8    0.01712
    9   -0.03643
   10    0.06373
   11   -0.08788
   12    0.02413
   13    0.16203
   14   -0.36929
   15    0.10148
   16   -0.00000
   17   -0.00000
   18   -0.00005
   19    0.00000
   20   -0.00000
   21   -0.00000
   22    0.00000
   23   -0.00000
   24    0.00000
   25   -0.07989
   26    0.11031
   27   -0.03042
   28   -0.20307
   29    0.46291
   30   -0.12726
   31   -0.00000
   32   -0.00001
   33    0.00005
   34   -0.01535
   35   -0.07209
   36    0.15347
   37   -0.00363
   38   -0.01712
   39    0.03643
   40    0.06373
   41   -0.08788
   42    0.02413
   43    0.16203
   44   -0.36929
   45    0.10148
 Ene=     1.7295
 Spin= Alpha
 Occup= 0.0
    1   -0.00000
    2   -0.00001
    3    0.00002
    4    0.00000
    5   -0.00000
    6    0.00000
    7   -0.00000
    8    0.00000
    9    0.00000
   10   -0.04385
   11   -0.55152
   12    0.59537
   13   -0.18141
   14    0.06973
   15    0.14853
   16   -0.00000
   17   -0.00000
   18   -0.00000
   19    0.00000
   20    0.00000
   21   -0.00000
   22   -0.00002
   23    0.00001
   24    0.00000
   25   -0.00000
   26   -0.00000
   27    0.00000
   28   -0.00000
   29    0.00000
   30    0.00000
   31    0.00000
   32    0.00001
   33   -0.00002
   34    0.00000
   35   -0.00000
   36   -0.00000
   37   -0.00000
   38    0.00000
   39    0.00000
   40    0.04385
   41    0.55152
   42   -0.59537
   43    0.18141
   44   -0.06973
   45   -0.14853
 Ene=     1.7295
 Spin= Alpha
 Occup= 0.0
    1    0.00000
    2    0.00001
    3   -0.00004
    4   -0.00000
    5    0.00000
    6    0.00000
    7    0.00001
    8   -0.00000
    9    0.00000
   10   -0.02272
   11   -0.11762
   12    0.14035
   13   -0.06501
   14   -0.18821
   15   -0.66171
   16   -0.00000
   17   -0.00000
   18   -0.00000
   19    0.00000
   20    0.00000
   21    0.00000
   22    0.00004
   23   -0.00001
   24   -0.00000
   25   -0.00000
   26   -0.00000
   27    0.00000
   28   -0.00000
   29   -0.00000
   30   -0.00000
   31   -0.00000
   32   -0.00001
   33    0.00004
   34   -0.00000
   35    0.00000
   36    0.00000
   37    0.00001
   38   -0.00000
   39    0.00000
   40    0.02272
   41    0.11762
   42   -0.14035
   43    0.06501
   44    0.18821
   45    0.66171
 Ene=     1.8386
 Spin= Alpha
 Occup= 0.0
    1   -0.07492
    2   -1.62851
    3    6.04757
    4    0.11138
    5   -0.03271
    6   -0.00423
    7   -1.34378
    8    0.39470
    9    0.05101
   10   -0.46648
   11   -0.19296
   12   -0.16757
   13    0.10152
   14    0.01312
   15   -0.00386
   16   -0.00000
   17   -0.00000
   18   -0.00000
   19   -0.13162
   20    0.03865
   21    0.00499
   22   -5.07815
   23    1.49160
   24    0.19280
   25    0.00000
   26   -0.00000
   27    0.00000
   28    0.00000
   29    0.00000
   30   -0.00000
   31    0.07492
   32    1.62851
   33   -6.04756
   34    0.11138
   35   -0.03271
   36   -0.00423
   37   -1.34379
   38    0.39470
   39    0.05101
   40    0.46648
   41    0.19296
   42    0.16757
   43   -0.10152
   44   -0.01312
   45    0.00386
 Ene=     2.0321
 Spin= Alpha
 Occup= 0.0
    1    0.00000
    2    0.00000
    3   -0.00000
    4   -0.00000
    5   -0.00000
    6   -0.00000
    7    0.00000
    8   -0.00000
    9    0.00000
   10   -0.03847
   11   -0.47769
   12    0.51616
   13   -0.15808
   14    0.05307
   15    0.10365
   16    0.00000
   17    0.00000
   18    0.00000
   19    0.00000
   20    0.00000
   21   -0.00000
   22    0.00000
   23    0.00000
   24   -0.00000
   25    0.04507
   26    0.55970
   27   -0.60477
   28    0.18522
   29   -0.06218
   30   -0.12145
   31    0.00000
   32    0.00000
   33   -0.00000
   34    0.00000
   35    0.00000
   36   -0.00000
   37   -0.00000
   38   -0.00000
   39    0.00000
   40   -0.03847
   41   -0.47769
   42    0.51616
   43   -0.15808
   44    0.05307
   45    0.10365
 Ene=     2.0321
 Spin= Alpha
 Occup= 0.0
    1    0.00000
    2    0.00000
    3   -0.00000
    4   -0.00000
    5   -0.00000
    6   -0.00000
    7    0.00000
    8   -0.00000
    9    0.00000