[Molden Format]
[Title]
Written by TeraChem
[Atoms] Angs
O   1   8     -0.99053    9.07403    4.09351
C   2   6     -2.11133    9.40320    4.13607
O   3   8     -3.23213    9.73237    4.17863
[GTO]
    1 0
 s    6 1.00
         5484.671700             0.001831
          825.234950             0.013950
          188.046960             0.068445
           52.964500             0.232714
           16.897570             0.470193
            5.799635             0.358521
 s    3 1.00
           15.539616            -0.110778
            3.599934            -0.148026
            1.013762             1.130767
 s    1 1.00
            0.270006             1.000000
 p    3 1.00
           15.539616             0.070874
            3.599934             0.339753
            1.013762             0.727159
 p    1 1.00
            0.270006             1.000000
 d    1 1.00
            0.800000             1.000000

    2 0
 s    6 1.00
         3047.524900             0.001835
          457.369510             0.014037
          103.948690             0.068843
           29.210155             0.232184
            9.286663             0.467941
            3.163927             0.362312
 s    3 1.00
            7.868272            -0.119332
            1.881288            -0.160854
            0.544249             1.143456
 s    1 1.00
            0.168714             1.000000
 p    3 1.00
            7.868272             0.068999
            1.881288             0.316424
            0.544249             0.744308
 p    1 1.00
            0.168714             1.000000
 d    1 1.00
            0.800000             1.000000

    3 0
 s    6 1.00
         5484.671700             0.001831
          825.234950             0.013950
          188.046960             0.068445
           52.964500             0.232714
           16.897570             0.470193
            5.799635             0.358521
 s    3 1.00
           15.539616            -0.110778
            3.599934            -0.148026
            1.013762             1.130767
 s    1 1.00
            0.270006             1.000000
 p    3 1.00
           15.539616             0.070874
            3.599934             0.339753
            1.013762             0.727159
 p    1 1.00
            0.270006             1.000000
 d    1 1.00
            0.800000             1.000000

[MO]
 Ene=   -19.2323
 Spin= Alpha
 Occup= 1.0
    1   -0.70799
    2   -0.01870
    3   -0.00978
    4    0.00157
    5   -0.00046
    6   -0.00006
    7    0.00188
    8   -0.00055
    9   -0.00007
   10    0.00450
   11    0.00572
   12    0.00583
   13    0.00045
   14    0.00006
   15   -0.00002
   16    0.00014
   17   -0.00016
   18    0.00537
   19    0.00000
   20   -0.00000
   21   -0.00000
   22    0.00006
   23   -0.00002
   24   -0.00000
   25    0.00294
   26    0.00030
   27    0.00006
   28   -0.00098
   29   -0.00013
   30    0.00004
   31   -0.69604
   32   -0.01840
   33   -0.00953
   34   -0.00156
   35    0.00046
   36    0.00006
   37   -0.00185
   38    0.00054
   39    0.00007
   40    0.00440
   41    0.00561
   42    0.00572
   43    0.00045
   44    0.00006
   45   -0.00002
 Ene=   -19.2323
 Spin= Alpha
 Occup= 1.0
    1   -0.69582
    2   -0.01729
    3   -0.01423
    4    0.00076
    5   -0.00022
    6   -0.00003
    7    0.00170
    8   -0.00050
    9   -0.00006
   10    0.00591
   11    0.00612
   12    0.00614
   13    0.00008
   14    0.00001
   15   -0.00000
   16   -0.00000
   17    0.00000
   18   -0.00005
   19    0.00014
   20   -0.00004
   21   -0.00001
   22    0.00701
   23   -0.00206
   24   -0.00027
   25   -0.00003
   26   -0.00000
   27   -0.00000
   28    0.00001
   29    0.00000
   30   -0.00000
   31    0.70777
   32    0.01760
   33    0.01439
   34    0.00079
   35   -0.00023
   36   -0.00003
   37    0.00173
   38   -0.00051
   39   -0.00007
   40   -0.00599
   41   -0.00621
   42   -0.00624
   43   -0.00008
   44   -0.00001
   45    0.00000
 Ene=   -10.3826
 Spin= Alpha
 Occup= 1.0
    1    0.00027
    2   -0.00010
    3    0.00325
    4   -0.00044
    5    0.00013
    6    0.00002
    7   -0.00282
    8    0.00083
    9    0.00011
   10    0.00083
   11   -0.00024
   12   -0.00034
   13   -0.00040
   14   -0.00005
   15    0.00002
   16   -0.99282
   17   -0.04948
   18    0.00074
   19    0.00000
   20    0.00000
   21   -0.00000
   22    0.00000
   23    0.00000
   24    0.00000
   25    0.00664
   26    0.01009
   27    0.01041
   28    0.00128
   29    0.00017
   30   -0.00005
   31    0.00027
   32   -0.00010
   33    0.00325
   34    0.00044
   35   -0.00013
   36   -0.00002
   37    0.00282
   38   -0.00083
   39   -0.00011
   40    0.00083
   41   -0.00024
   42   -0.00034
   43   -0.00040
   44   -0.00005
   45    0.00002
 Ene=    -1.1564
 Spin= Alpha
 Occup= 1.0
    1   -0.13501
    2    0.29140
    3    0.26706
    4   -0.12000
    5    0.03524
    6    0.00456
    7   -0.05105
    8    0.01500
    9    0.00194
   10    0.01024
   11   -0.00619
   12   -0.00772
   13   -0.00610
   14   -0.00079
   15    0.00023
   16   -0.15643
   17    0.30270
   18    0.03690
   19    0.00000
   20   -0.00000
   21   -0.00000
   22   -0.00000
   23    0.00000
   24    0.00000
   25    0.02576
   26   -0.02495
   27   -0.02965
   28   -0.01882
   29   -0.00243
   30    0.00071
   31   -0.13501
   32    0.29140
   33    0.26706
   34    0.12000
   35   -0.03524
   36   -0.00456
   37    0.05105
   38   -0.01500
   39   -0.00194
   40    0.01024
   41   -0.00619
   42   -0.00772
   43   -0.00610
   44   -0.00079
   45    0.00023
 Ene=    -1.1155
 Spin= Alpha
 Occup= 1.0
    1   -0.14701
    2    0.32560
    3    0.27034
    4   -0.12409
    5    0.03645
    6    0.00471
    7   -0.01991
    8    0.00585
    9    0.00076
   10    0.00617
   11   -0.00432
   12   -0.00529
   13   -0.00389
   14   -0.00050
   15    0.00015
   16    0.00000
   17   -0.00000
   18   -0.00000
   19    0.32258
   20   -0.09474
   21   -0.01225
   22   -0.01882
   23    0.00553
   24    0.00072
   25   -0.00000
   26    0.00000
   27    0.00000
   28    0.00000
   29    0.00000
   30   -0.00000
   31    0.14701
   32   -0.32560
   33   -0.27034
   34   -0.12409
   35    0.03645
   36    0.00471
   37   -0.01991
   38    0.00585
   39    0.00076
   40   -0.00617
   41    0.00432
   42    0.00529
   43    0.00389
   44    0.00050
   45   -0.00015
 Ene=    -0.5608
 Spin= Alpha
 Occup= 1.0
    1    0.09413
    2   -0.21002
    3   -0.33738
    4   -0.31745
    5    0.09323
    6    0.01206
    7   -0.17065
    8    0.05012
    9    0.00648
   10    0.03057
   11    0.00022
   12   -0.00259
   13   -0.01126
   14   -0.00146
   15    0.00043
   16   -0.13545
   17    0.31406
   18    0.17906
   19    0.00000
   20   -0.00000
   21   -0.00000
   22    0.00000
   23   -0.00000
   24   -0.00000
   25   -0.02292
   26   -0.01347
   27   -0.01259
   28    0.00351
   29    0.00045
   30   -0.00013
   31    0.09413
   32   -0.21002
   33   -0.33738
   34    0.31745
   35   -0.09323
   36   -0.01206
   37    0.17065
   38   -0.05012
   39   -0.00648
   40    0.03057
   41    0.00022
   42   -0.00259
   43   -0.01126
   44   -0.00146
   45    0.00043
 Ene=    -0.5155
 Spin= Alpha
 Occup= 1.0
    1    0.07099
    2   -0.15469
    3   -0.29081
    4   -0.37680
    5    0.11066
    6    0.01432
    7   -0.17738
    8    0.05209
    9    0.00674
   10    0.02189
   11    0.00021
   12   -0.00180
   13   -0.00805
   14   -0.00104
   15    0.00031
   16    0.00000
   17   -0.00000
   18   -0.00000
   19    0.33596
   20   -0.09867
   21   -0.01275
   22   -0.00155
   23    0.00045
   24    0.00006
   25    0.00000
   26    0.00000
   27    0.00000
   28   -0.00000
   29   -0.00000
   30   -0.00000
   31   -0.07100
   32    0.15469
   33    0.29081
   34   -0.37680
   35    0.11066
   36    0.01432
   37   -0.17738
   38    0.05209
   39    0.00674
   40   -0.02189
   41   -0.00021
   42    0.00180
   43    0.00805
   44    0.00104
   45   -0.00031
 Ene=    -0.5077
 Spin= Alpha
 Occup= 1.0
    1   -0.00000
    2    0.00000
    3    0.00002
    4   -0.09876
    5   -0.32286
    6   -0.10370
    7   -0.05475
    8   -0.17899
    9   -0.05749
   10    0.01329
   11   -0.01276
   12   -0.00053
   13    0.02282
   14    0.00776
   15   -0.00332
   16    0.00000
   17   -0.00000
   18   -0.00000
   19   -0.11210
   20   -0.36648
   21   -0.11771
   22   -0.04252
   23   -0.13890
   24   -0.04461
   25   -0.00000
   26    0.00000
   27    0.00000
   28    0.00000
   29    0.00000
   30   -0.00000
   31    0.00000
   32   -0.00000
   33   -0.00002
   34   -0.09876
   35   -0.32286
   36   -0.10370
   37   -0.05475
   38   -0.17899
   39   -0.05749
   40   -0.01329
   41    0.01276
   42    0.00053
   43   -0.02282
   44   -0.00776
   45    0.00332
 Ene=    -0.5077
 Spin= Alpha
 Occup= 1.0
    1   -0.00000
    2    0.00001
    3    0.00001
    4   -0.01743
    5   -0.10303
    6    0.33738
    7   -0.00967
    8   -0.05712
    9    0.18704
   10    0.00235
   11   -0.00407
   12    0.00172
   13    0.00760
   14   -0.02626
   15    0.00739
   16    0.00000
   17   -0.00000
   18   -0.00000
   19   -0.01981
   20   -0.11695
   21    0.38297
   22   -0.00751
   23   -0.04433
   24    0.14516
   25   -0.00000
   26    0.00000
   27    0.00000
   28   -0.00000
   29    0.00000
   30   -0.00000
   31    0.00000
   32   -0.00001
   33   -0.00001
   34   -0.01743
   35   -0.10303
   36    0.33738
   37   -0.00967
   38   -0.05712
   39    0.18704
   40   -0.00235
   41    0.00407
   42   -0.00172
   43   -0.00760
   44    0.02626
   45   -0.00739
 Ene=    -0.3666
 Spin= Alpha
 Occup= 1.0
    1    0.00000
    2   -0.00000
    3   -0.00000
    4    0.09985
    5    0.29398
    6    0.35585
    7    0.06942
    8    0.20438
    9    0.24740
   10   -0.00760
   11    0.00657
   12    0.00103
   13   -0.01162
   14   -0.01546
   15    0.00508
   16    0.00000
   17   -0.00000
   18    0.00001
   19   -0.00000
   20   -0.00000
   21   -0.00000
   22    0.00000
   23   -0.00000
   24   -0.00000
   25    0.02021
   26   -0.01747
   27   -0.00274
   28    0.03092
   29    0.04113
   30   -0.01351
   31    0.00000
   32   -0.00000
   33   -0.00000
   34   -0.09985
   35   -0.29398
   36   -0.35585
   37   -0.06942
   38   -0.20438
   39   -0.24740
   40   -0.00760
   41    0.00657
   42    0.00103
   43   -0.01162
   44   -0.01546
   45    0.00508
 Ene=    -0.3666
 Spin= Alpha
 Occup= 1.0
    1   -0.00000
    2    0.00000
    3    0.00000
    4   -0.08951
    5   -0.34484
    6    0.31000
    7   -0.06223
    8   -0.23974
    9    0.21552
   10    0.00681
   11   -0.00770
   12    0.00090
   13    0.01399
   14   -0.01376
   15    0.00342
   16    0.00000
   17    0.00000
   18   -0.00001
   19    0.00000
   20    0.00000
   21   -0.00000
   22   -0.00000
   23    0.00000
   24   -0.00000
   25   -0.01811
   26    0.02049
   27   -0.00238
   28   -0.03722
   29    0.03661
   30   -0.00911
   31   -0.00000
   32    0.00000
   33    0.00000
   34    0.08951
   35    0.34484
   36   -0.31000
   37    0.06223
   38    0.23974
   39   -0.21552
   40    0.00681
   41   -0.00770
   42    0.00090
   43    0.01399
   44   -0.01376
   45    0.00342
 Ene=     0.0353
 Spin= Alpha
 Occup= 0.0
    1    0.00000
    2    0.00000
    3   -0.00005
    4   -0.10218
    5   -0.35518
    6    0.05608
    7   -0.10688
    8   -0.37155
    9    0.05866
   10   -0.00731
   11    0.00747
   12   -0.00015
   13   -0.01344
   14    0.00248
   15   -0.00012
   16   -0.00000
   17    0.00000
   18    0.00000
   19    0.16610
   20    0.57734
   21   -0.09115
   22    0.16071
   23    0.55839
   24   -0.08816
   25   -0.00000
   26    0.00000
   27    0.00000
   28    0.00000
   29    0.00000
   30    0.00000
   31   -0.00000
   32   -0.00000
   33    0.00005
   34   -0.10218
   35   -0.35518
   36    0.05608
   37   -0.10688
   38   -0.37155
   39    0.05866
   40    0.00731
   41   -0.00747
   42    0.00015
   43    0.01344
   44   -0.00248
   45    0.00012
 Ene=     0.0353
 Spin= Alpha
 Occup= 0.0
    1    0.00000
    2    0.00000
    3   -0.00003
    4   -0.02872
    5   -0.05005
    6   -0.36934
    7   -0.03004
    8   -0.05235
    9   -0.38635
   10   -0.00205
   11    0.00105
   12    0.00101
   13   -0.00172
   14   -0.01522
   15    0.00456
   16   -0.00000
   17    0.00000
   18    0.00000
   19    0.04669
   20    0.08135
   21    0.60036
   22    0.04520
   23    0.07867
   24    0.58065
   25   -0.00000
   26    0.00000
   27    0.00000
   28    0.00000
   29    0.00000
   30    0.00000
   31   -0.00000
   32   -0.00000
   33    0.00003
   34   -0.02872
   35   -0.05005
   36   -0.36934
   37   -0.03004
   38   -0.05235
   39   -0.38635
   40    0.00205
   41   -0.00105
   42   -0.00101
   43    0.00172
   44    0.01522
   45   -0.00456
 Ene=     0.0927
 Spin= Alpha
 Occup= 0.0
    1   -0.07622
    2    0.17994
    3    0.85793
    4   -0.28459
    5    0.08359
    6    0.01081
    7   -0.53605
    8    0.15743
    9    0.02036
   10    0.02792
   11   -0.01575
   12   -0.01980
   13   -0.01621
   14   -0.00210
   15    0.00062
   16    0.10047
   17   -0.07604
   18   -2.21408
   19    0.00000
   20    0.00000
   21    0.00000
   22    0.00000
   23    0.00000
   24    0.00000
   25    0.03539
   26   -0.01737
   27   -0.02226
   28   -0.01958
   29   -0.00253
   30    0.00074
   31   -0.07622
   32    0.17994
   33    0.85793
   34    0.28459
   35   -0.08359
   36   -0.01081
   37    0.53605
   38   -0.15743
   39   -0.02036
   40    0.02792
   41   -0.01575
   42   -0.01980
   43   -0.01621
   44   -0.00210
   45    0.00062
 Ene=     0.3712
 Spin= Alpha
 Occup= 0.0
    1   -0.10247
    2    0.02995
    3    2.98723
    4    0.09509
    5   -0.02791
    6   -0.00361
    7   -0.84669
    8    0.24868
    9    0.03216
   10   -0.01207
   11   -0.07400
   12   -0.07975
   13   -0.02300
   14   -0.00297
   15    0.00087
   16    0.00000
   17   -0.00000
   18    0.00000
   19   -0.07128
   20    0.02107
   21    0.00274
   22   -3.95723
   23    1.16203
   24    0.15023
   25   -0.00000
   26    0.00000
   27    0.00000
   28    0.00000
   29    0.00000
   30   -0.00000
   31    0.10247
   32   -0.02995
   33   -2.98723
   34    0.09509
   35   -0.02791
   36   -0.00361
   37   -0.84669
   38    0.24868
   39    0.03216
   40    0.01207
   41    0.07400
   42    0.07975
   43    0.02300
   44    0.00297
   45   -0.00087
 Ene=     0.4833
 Spin= Alpha
 Occup= 0.0
    1    0.00001
    2   -0.00002
    3   -0.00033
    4    0.03444
    5    0.11838
    6   -0.00824
    7    0.03799
    8    0.13007
    9   -0.00906
   10   -0.02839
   11    0.02865
   12   -0.00025
   13   -0.05149
   14    0.00454
   15    0.00099
   16   -0.00000
   17    0.00000
   18   -0.00000
   19    0.25660
   20    0.88154
   21   -0.06135
   22   -0.36460
   23   -1.25444
   24    0.08727
   25    0.00000
   26   -0.00000
   27    0.00000
   28   -0.00000
   29   -0.00000
   30    0.00000
   31   -0.00001
   32    0.00002
   33    0.00033
   34    0.03444
   35    0.11838
   36   -0.00824
   37    0.03799
   38    0.13007
   39   -0.00906
   40    0.02839
   41   -0.02865
   42    0.00025
   43    0.05149
   44   -0.00454
   45   -0.00099
 Ene=     0.4833
 Spin= Alpha
 Occup= 0.0
    1    0.00000
    2   -0.00001
    3   -0.00009
    4    0.00663
    5    0.00665
    6    0.12322
    7    0.00732
    8    0.00729
    9    0.13541
   10   -0.00546
   11    0.00161
   12    0.00386
   13   -0.00223
   14   -0.05848
   15    0.01733
   16   -0.00000
   17    0.00000
   18   -0.00000
   19    0.04938
   20    0.04948
   21    0.91751
   22   -0.07011
   23   -0.07044
   24   -1.30548
   25   -0.00000
   26    0.00000
   27    0.00000
   28    0.00000
   29    0.00000
   30   -0.00000
   31   -0.00000
   32    0.00001
   33    0.00009
   34    0.00663
   35    0.00665
   36    0.12322
   37    0.00732
   38    0.00729
   39    0.13541
   40    0.00546
   41   -0.00161
   42   -0.00386
   43    0.00223
   44    0.05848
   45   -0.01733
 Ene=     0.5910
 Spin= Alpha
 Occup= 0.0
    1    0.01030
    2   -0.00060
    3    0.52304
    4    0.36675
    5   -0.10770
    6   -0.01393
    7   -0.44628
    8    0.13105
    9    0.01695
   10    0.21087
   11   -0.01657
   12   -0.03768
   13   -0.08441
   14   -0.01091
   15    0.00320
   16   -0.12939
   17    1.09438
   18   -2.06280
   19    0.00000
   20   -0.00000
   21   -0.00000
   22   -0.00000
   23    0.00000
   24    0.00000
   25   -0.27279
   26    0.11195
   27    0.14766
   28    0.14279
   29    0.01846
   30   -0.00542
   31    0.01030
   32   -0.00060
   33    0.52304
   34   -0.36675
   35    0.10770
   36    0.01393
   37    0.44628
   38   -0.13105
   39   -0.01695
   40    0.21087
   41   -0.01657
   42   -0.03768
   43   -0.08441
   44   -0.01091
   45    0.00320
 Ene=     0.7348
 Spin= Alpha
 Occup= 0.0
    1    0.04391
    2   -0.25041
    3   -0.08040
    4   -0.01772
    5    0.00520
    6    0.00067
    7    0.82158
    8   -0.24129
    9   -0.03120
   10    0.04450
   11   -0.08562
   12   -0.09770
   13   -0.04829
   14   -0.00624
   15    0.00183
   16    0.00000
   17    0.00000
   18    0.00000
   19    1.04142
   20   -0.30587
   21   -0.03955
   22   -0.23834
   23    0.07002
   24    0.00905
   25    0.00000
   26   -0.00000
   27   -0.00000
   28   -0.00000
   29   -0.00000
   30    0.00000
   31   -0.04391
   32    0.25041
   33    0.08040
   34   -0.01772
   35    0.00520
   36    0.00067
   37    0.82158
   38   -0.24129
   39   -0.03120
   40   -0.04450
   41    0.08562
   42    0.09770
   43    0.04829
   44    0.00624
   45   -0.00183
 Ene=     0.7779
 Spin= Alpha
 Occup= 0.0
    1    0.01445
    2   -0.37507
    3    0.26086
    4   -0.30963
    5    0.09095
    6    0.01176
    7    0.95607
    8   -0.28081
    9   -0.03631
   10   -0.18918
   11   -0.13344
   12   -0.12827
   13    0.02069
   14    0.00267
   15   -0.00079
   16    0.05125
   17    1.09689
   18   -0.02482
   19   -0.00000
   20    0.00000
   21   -0.00000
   22    0.00000
   23   -0.00000
   24   -0.00000
   25    0.31237
   26    0.01692
   27   -0.01050
   28   -0.10965
   29   -0.01418
   30    0.00416
   31    0.01445
   32   -0.37507
   33    0.26086
   34    0.30963
   35   -0.09095
   36   -0.01176
   37   -0.95607
   38    0.28081
   39    0.03631
   40   -0.18918
   41   -0.13344
   42   -0.12827
   43    0.02069
   44    0.00267
   45   -0.00079
 Ene=     0.8767
 Spin= Alpha
 Occup= 0.0
    1   -0.00000
    2    0.00001
    3   -0.00001
    4    0.13685
    5    0.40272
    6    0.48909
    7   -0.17132
    8   -0.50414
    9   -0.61226
   10   -0.00305
   11    0.00264
   12    0.00042
   13   -0.00467
   14   -0.00623
   15    0.00205
   16    0.00000
   17   -0.00003
   18    0.00003
   19   -0.00000
   20    0.00000
   21   -0.00000
   22    0.00000
   23   -0.00000
   24    0.00000
   25    0.04686
   26   -0.04051
   27   -0.00636
   28    0.07168
   29    0.09567
   30   -0.03142
   31   -0.00000
   32    0.00001
   33   -0.00001
   34   -0.13685
   35   -0.40272
   36   -0.48909
   37    0.17132
   38    0.50414
   39    0.61226
   40   -0.00305
   41    0.00264
   42    0.00042
   43   -0.00467
   44   -0.00623
   45    0.00205
 Ene=     0.8767
 Spin= Alpha
 Occup= 0.0
    1   -0.00000
    2   -0.00001
    3    0.00003
    4   -0.12306
    5   -0.47394
    6    0.42468
    7    0.15405
    8    0.59330
    9   -0.53163
   10    0.00274
   11   -0.00310
   12    0.00035
   13    0.00563
   14   -0.00553
   15    0.00137
   16   -0.00000
   17    0.00002
   18   -0.00005
   19    0.00000
   20    0.00000
   21   -0.00000
   22   -0.00000
   23   -0.00000
   24    0.00000
   25   -0.04215
   26    0.04767
   27   -0.00552
   28   -0.08656
   29    0.08489
   30   -0.02110
   31   -0.00000
   32   -0.00001
   33    0.00003
   34    0.12306
   35    0.47394
   36   -0.42468
   37   -0.15405
   38   -0.59330
   39    0.53163
   40    0.00274
   41   -0.00310
   42    0.00035
   43    0.00563
   44   -0.00553
   45    0.00137
 Ene=     1.0403
 Spin= Alpha
 Occup= 0.0
    1    0.05144
    2   -0.02038
    3   -1.04124
    4    0.70756
    5   -0.20769
    6   -0.02675
    7   -0.37330
    8    0.10943
    9    0.01397
   10    0.15486
   11    0.05163
   12    0.04204
   13   -0.03833
   14   -0.00497
   15    0.00146
   16    0.00000
   17   -0.00000
   18    0.00000
   19    0.54242
   20   -0.15933
   21   -0.02063
   22    0.93834
   23   -0.27540
   24   -0.03544
   25    0.00000
   26   -0.00000
   27   -0.00000
   28    0.00000
   29    0.00000
   30   -0.00000
   31   -0.05144
   32    0.02038
   33    1.04124
   34    0.70756
   35   -0.20769
   36   -0.02675
   37   -0.37330
   38    0.10943
   39    0.01397
   40   -0.15486
   41   -0.05163
   42   -0.04204
   43    0.03833
   44    0.00497
   45   -0.00146
 Ene=     1.0435
 Spin= Alpha
 Occup= 0.0
    1   -0.00001
    2    0.00001
    3    0.00015
    4    0.18136
    5    0.61695
    6    0.00788
    7   -0.31481
    8   -1.07042
    9   -0.01367
   10   -0.03514
   11    0.03505
   12    0.00005
   13   -0.06296
   14   -0.00011
   15    0.00288
   16    0.00000
   17    0.00000
   18    0.00000
   19   -0.05273
   20   -0.17889
   21   -0.00228
   22    0.29808
   23    1.01380
   24    0.01295
   25    0.00000
   26    0.00000
   27   -0.00000
   28   -0.00000
   29    0.00000
   30    0.00000
   31    0.00001
   32   -0.00001
   33   -0.00015
   34    0.18136
   35    0.61695
   36    0.00788
   37   -0.31481
   38   -1.07042
   39   -0.01367
   40    0.03514
   41   -0.03505
   42   -0.00005
   43    0.06296
   44    0.00011
   45   -0.00288
 Ene=     1.0435
 Spin= Alpha
 Occup= 0.0
    1   -0.00001
    2    0.00001
    3    0.00018
    4    0.02012
    5   -0.01412
    6    0.64263
    7   -0.03506
    8    0.02455
    9   -1.11502
   10   -0.00394
   11   -0.00081
   12    0.00471
   13    0.00225
   14   -0.07171
   15    0.02102
   16    0.00000
   17    0.00000
   18    0.00000
   19   -0.00597
   20    0.00413
   21   -0.18638
   22    0.03310
   23   -0.02322
   24    1.05604
   25    0.00000
   26   -0.00000
   27   -0.00000
   28   -0.00000
   29   -0.00000
   30    0.00000
   31    0.00001
   32   -0.00001
   33   -0.00018
   34    0.02012
   35   -0.01412
   36    0.64263
   37   -0.03506
   38    0.02455
   39   -1.11502
   40    0.00394
   41    0.00081
   42   -0.00471
   43   -0.00225
   44    0.07171
   45   -0.02102
 Ene=     1.3840
 Spin= Alpha
 Occup= 0.0
    1    0.06733
    2    1.15674
    3   -3.54123
    4   -0.06620
    5    0.01945
    6    0.00252
    7    1.30820
    8   -0.38420
    9   -0.04968
   10    0.37961
   11    0.22461
   12    0.21022
   13   -0.05751
   14   -0.00744
   15    0.00216
   16    0.05089
   17    0.38602
   18    3.75101
   19    0.00000
   20    0.00000
   21    0.00000
   22    0.00000
   23   -0.00000
   24   -0.00000
   25    0.27004
   26   -0.11926
   27   -0.15543
   28   -0.14451
   29   -0.01870
   30    0.00546
   31    0.06733
   32    1.15674
   33   -3.54123
   34    0.06619
   35   -0.01945
   36   -0.00252
   37   -1.30820
   38    0.38420
   39    0.04968
   40    0.37961
   41    0.22461
   42    0.21022
   43   -0.05751
   44   -0.00744
   45    0.00216
 Ene=     1.3994
 Spin= Alpha
 Occup= 0.0
    1    0.00000
    2    0.00002
    3   -0.00008
    4    0.00001
    5    0.00004
    6   -0.00001
    7    0.00003
    8    0.00001
    9   -0.00000
   10   -0.02557
   11   -0.30964
   12    0.33523
   13   -0.10374
   14    0.02369
   15    0.03071
   16    0.00000
   17    0.00001
   18    0.00008
   19    0.00000
   20   -0.00000
   21    0.00000
   22    0.00000
   23    0.00000
   24   -0.00000
   25   -0.04821
   26   -0.58167
   27    0.62988
   28   -0.19521
   29    0.04460
   30    0.05770
   31    0.00000
   32    0.00002
   33   -0.00008
   34   -0.00001
   35   -0.00004
   36    0.00001
   37   -0.00003
   38   -0.00001
   39    0.00000
   40   -0.02557
   41   -0.30964
   42    0.33523
   43   -0.10374
   44    0.02369
   45    0.03071
 Ene=     1.3994
 Spin= Alpha
 Occup= 0.0
    1   -0.00000
    2   -0.00005
    3    0.00017
    4    0.00000
    5   -0.00000
    6    0.00001
    7   -0.00006
    8    0.00002
    9    0.00000
   10   -0.00907
   11   -0.02224
   12    0.03128
   13   -0.02166
   14   -0.10787
   15   -0.37202
   16   -0.00000
   17   -0.00002
   18   -0.00018
   19    0.00000
   20   -0.00000
   21   -0.00000
   22    0.00000
   23    0.00000
   24    0.00000
   25   -0.01704
   26   -0.04176
   27    0.05880
   28   -0.04070
   29   -0.20273
   30   -0.69901
   31   -0.00000
   32   -0.00005
   33    0.00017
   34   -0.00000
   35    0.00000
   36   -0.00001
   37    0.00006
   38   -0.00002
   39   -0.00000
   40   -0.00907
   41   -0.02224
   42    0.03128
   43   -0.02166
   44   -0.10787
   45   -0.37202
 Ene=     1.4103
 Spin= Alpha
 Occup= 0.0
    1   -0.00000
    2   -0.00004
    3    0.00013
    4    0.04583
    5    0.14652
    6    0.07364
    7    0.01082
    8    0.03476
    9    0.01746
   10    0.19026
   11   -0.17861
   12   -0.01169
   13    0.31898
   14    0.17234
   15   -0.06518
   16   -0.00000
   17   -0.00001
   18   -0.00014
   19    0.00000
   20   -0.00000
   21   -0.00000
   22    0.00000
   23    0.00000
   24    0.00000
   25   -0.23850
   26    0.22407
   27    0.01443
   28   -0.39975
   29   -0.21602
   30    0.08170
   31   -0.00000
   32   -0.00004
   33    0.00013
   34   -0.04583
   35   -0.14652
   36   -0.07364
   37   -0.01082
   38   -0.03476
   39   -0.01746
   40    0.19026
   41   -0.17861
   42   -0.01169
   43    0.31898
   44    0.17234
   45   -0.06518
 Ene=     1.4103
 Spin= Alpha
 Occup= 0.0
    1   -0.00000
    2   -0.00002
    3    0.00005
    4    0.01540
    5    0.07227
    6   -0.15339
    7    0.00363
    8    0.01714
    9   -0.03637
   10    0.06394
   11   -0.08808
   12    0.02413
   13    0.16242
   14   -0.36911
   15    0.10139
   16   -0.00000
   17   -0.00000
   18   -0.00005
   19    0.00000
   20   -0.00000
   21   -0.00000
   22   -0.00000
   23    0.00000
   24   -0.00000
   25   -0.08015
   26    0.11056
   27   -0.03041
   28   -0.20353
   29    0.46263
   30   -0.12714
   31   -0.00000
   32   -0.00002
   33    0.00005
   34   -0.01540
   35   -0.07227
   36    0.15339
   37   -0.00363
   38   -0.01714
   39    0.03637
   40    0.06394
   41   -0.08808
   42    0.02413
   43    0.16242
   44   -0.36911
   45    0.10139
 Ene=     1.7295
 Spin= Alpha
 Occup= 0.0
    1    0.00000
    2    0.00001
    3   -0.00002
    4   -0.00000
    5    0.00000
    6   -0.00000
    7    0.00000
    8   -0.00000
    9   -0.00000
   10    0.04384
   11    0.55151
   12   -0.59535
   13    0.18138
   14   -0.06975
   15   -0.14862
   16   -0.00000
   17   -0.00000
   18   -0.00000
   19   -0.00000
   20   -0.00000
   21    0.00000
   22    0.00002
   23   -0.00001
   24   -0.00000
   25   -0.00000
   26   -0.00000
   27    0.00000
   28   -0.00000
   29    0.00000
   30    0.00000
   31   -0.00000
   32   -0.00001
   33    0.00002
   34   -0.00000
   35    0.00000
   36   -0.00000
   37    0.00000
   38   -0.00000
   39   -0.00000
   40   -0.04384
   41   -0.55151
   42    0.59535
   43   -0.18138
   44    0.06975
   45    0.14862
 Ene=     1.7295
 Spin= Alpha
 Occup= 0.0
    1   -0.00000
    2   -0.00001
    3    0.00004
    4    0.00000
    5   -0.00000
    6   -0.00000
    7   -0.00001
    8    0.00000
    9   -0.00000
   10    0.02273
   11    0.11769
   12   -0.14043
   13    0.06504
   14    0.18818
   15    0.66169
   16   -0.00000
   17   -0.00000
   18   -0.00000
   19   -0.00000
   20   -0.00000
   21   -0.00000
   22   -0.00004
   23    0.00001
   24    0.00000
   25   -0.00000
   26   -0.00000
   27    0.00000
   28   -0.00000
   29   -0.00000
   30   -0.00000
   31    0.00000
   32    0.00001
   33   -0.00004
   34    0.00000
   35   -0.00000
   36   -0.00000
   37   -0.00001
   38    0.00000
   39   -0.00000
   40   -0.02273
   41   -0.11769
   42    0.14043
   43   -0.06504
   44   -0.18818
   45   -0.66169
 Ene=     1.8387
 Spin= Alpha
 Occup= 0.0
    1    0.07492
    2    1.62850
    3   -6.04756
    4   -0.11139
    5    0.03271
    6    0.00423
    7    1.34380
    8   -0.39466
    9   -0.05103
   10    0.46648
   11    0.19294
   12    0.16756
   13   -0.10151
   14   -0.01312
   15    0.00386
   16   -0.00000
   17   -0.00000
   18   -0.00000
   19    0.13161
   20   -0.03864
   21   -0.00499
   22    5.07823
   23   -1.49144
   24   -0.19285
   25   -0.00000
   26    0.00000
   27    0.00000
   28   -0.00000
   29   -0.00000
   30   -0.00000
   31   -0.07492
   32   -1.62850
   33    6.04756
   34   -0.11139
   35    0.03271
   36    0.00423
   37    1.34380
   38   -0.39466
   39   -0.05103
   40   -0.46648
   41   -0.19294
   42   -0.16756
   43    0.10151
   44    0.01312
   45   -0.00386
 Ene=     2.0322
 Spin= Alpha
 Occup= 0.0
    1    0.00000
    2    0.00000
    3   -0.00000
    4   -0.00000
    5   -0.00000
    6   -0.00000
    7    0.00000
    8   -0.00000
    9    0.00000
   10   -0.03845
   11   -0.47768
   12    0.51613
   13   -0.15805
   14    0.05309
   15    0.10372
   16    0.00000
   17    0.00000
   18    0.00000
   19    0.00000
   20    0.00000
   21   -0.00000
   22    0.00000
   23    0.00000
   24   -0.00000
   25    0.04506
   26    0.55972
   27   -0.60478
   28    0.18520
   29   -0.06221
   30   -0.12154
   31    0.00000
   32    0.00000
   33   -0.00000
   34    0.00000
   35    0.00000
   36   -0.00000
   37   -0.00000
   38   -0.00000
   39    0.00000
   40   -0.03845
   41   -0.47768
   42    0.51613
   43   -0.15805
   44    0.05309
   45    0.10372
 Ene=     2.0322
 Spin= Alpha
 Occup= 0.0
    1    0.00000
    2    0.00000
    3   -0.00000
    4   -0.00000
    5   -0.00000
    6   -0.00000
    7    0.00000
    8   -0.00000
    9    0.00000